
                                 *****************
                                 * O   R   C   A *
                                 *****************

                                            #,                                       
                                            ###                                      
                                            ####                                     
                                            #####                                    
                                            ######                                   
                                           ########,                                 
                                     ,,################,,,,,                         
                               ,,#################################,,                 
                          ,,##########################################,,             
                       ,#########################################, ''#####,          
                    ,#############################################,,   '####,        
                  ,##################################################,,,,####,       
                ,###########''''           ''''###############################       
              ,#####''   ,,,,##########,,,,          '''####'''          '####       
            ,##' ,,,,###########################,,,                        '##       
           ' ,,###''''                  '''############,,,                           
         ,,##''                                '''############,,,,        ,,,,,,###''
      ,#''                                            '''#######################'''  
     '                                                          ''''####''''         
             ,#######,   #######,   ,#######,      ##                                
            ,#'     '#,  ##    ##  ,#'     '#,    #''#        ######   ,####,        
            ##       ##  ##   ,#'  ##            #'  '#       #        #'  '#        
            ##       ##  #######   ##           ,######,      #####,   #    #        
            '#,     ,#'  ##    ##  '#,     ,#' ,#      #,         ##   #,  ,#        
             '#######'   ##     ##  '#######'  #'      '#     #####' # '####'        



                  #######################################################
                  #                        -***-                        #
                  #          Department of theory and spectroscopy      #
                  #    Directorship and core code : Frank Neese         #
                  #        Max Planck Institute fuer Kohlenforschung    #
                  #                Kaiser Wilhelm Platz 1               #
                  #                 D-45470 Muelheim/Ruhr               #
                  #                      Germany                        #
                  #                                                     #
                  #                  All rights reserved                #
                  #                        -***-                        #
                  #######################################################


                         Program Version 5.0.2 -  RELEASE  -


 With contributions from (in alphabetic order):
   Daniel Aravena         : Magnetic Suceptibility
   Michael Atanasov       : Ab Initio Ligand Field Theory (pilot matlab implementation)
   Alexander A. Auer      : GIAO ZORA, VPT2 properties, NMR spectrum
   Ute Becker             : Parallelization
   Giovanni Bistoni       : ED, misc. LED, open-shell LED, HFLD
   Martin Brehm           : Molecular dynamics
   Dmytro Bykov           : SCF Hessian
   Vijay G. Chilkuri      : MRCI spin determinant printing, contributions to CSF-ICE
   Dipayan Datta          : RHF DLPNO-CCSD density
   Achintya Kumar Dutta   : EOM-CC, STEOM-CC
   Dmitry Ganyushin       : Spin-Orbit,Spin-Spin,Magnetic field MRCI
   Miquel Garcia          : C-PCM and meta-GGA Hessian, CC/C-PCM, Gaussian charge scheme
   Yang Guo               : DLPNO-NEVPT2, F12-NEVPT2, CIM, IAO-localization
   Andreas Hansen         : Spin unrestricted coupled pair/coupled cluster methods
   Benjamin Helmich-Paris : MC-RPA, TRAH-SCF, COSX integrals
   Lee Huntington         : MR-EOM, pCC
   Robert Izsak           : Overlap fitted RIJCOSX, COSX-SCS-MP3, EOM
   Marcus Kettner         : VPT2
   Christian Kollmar      : KDIIS, OOCD, Brueckner-CCSD(T), CCSD density, CASPT2, CASPT2-K
   Simone Kossmann        : Meta GGA functionals, TD-DFT gradient, OOMP2, MP2 Hessian
   Martin Krupicka        : Initial AUTO-CI
   Lucas Lang             : DCDCAS
   Marvin Lechner         : AUTO-CI (C++ implementation), FIC-MRCC
   Dagmar Lenk            : GEPOL surface, SMD
   Dimitrios Liakos       : Extrapolation schemes; Compound Job, initial MDCI parallelization
   Dimitrios Manganas     : Further ROCIS development; embedding schemes
   Dimitrios Pantazis     : SARC Basis sets
   Anastasios Papadopoulos: AUTO-CI, single reference methods and gradients
   Taras Petrenko         : DFT Hessian,TD-DFT gradient, ASA, ECA, R-Raman, ABS, FL, XAS/XES, NRVS
   Peter Pinski           : DLPNO-MP2, DLPNO-MP2 Gradient
   Christoph Reimann      : Effective Core Potentials
   Marius Retegan         : Local ZFS, SOC
   Christoph Riplinger    : Optimizer, TS searches, QM/MM, DLPNO-CCSD(T), (RO)-DLPNO pert. Triples
   Tobias Risthaus        : Range-separated hybrids, TD-DFT gradient, RPA, STAB
   Michael Roemelt        : Original ROCIS implementation
   Masaaki Saitow         : Open-shell DLPNO-CCSD energy and density
   Barbara Sandhoefer     : DKH picture change effects
   Avijit Sen             : IP-ROCIS
   Kantharuban Sivalingam : CASSCF convergence, NEVPT2, FIC-MRCI
   Bernardo de Souza      : ESD, SOC TD-DFT
   Georgi Stoychev        : AutoAux, RI-MP2 NMR, DLPNO-MP2 response
   Willem Van den Heuvel  : Paramagnetic NMR
   Boris Wezisla          : Elementary symmetry handling
   Frank Wennmohs         : Technical directorship


 We gratefully acknowledge several colleagues who have allowed us to
 interface, adapt or use parts of their codes:
   Stefan Grimme, W. Hujo, H. Kruse, P. Pracht,  : VdW corrections, initial TS optimization,
                  C. Bannwarth, S. Ehlert          DFT functionals, gCP, sTDA/sTD-DF
   Ed Valeev, F. Pavosevic, A. Kumar             : LibInt (2-el integral package), F12 methods
   Garnet Chan, S. Sharma, J. Yang, R. Olivares  : DMRG
   Ulf Ekstrom                                   : XCFun DFT Library
   Mihaly Kallay                                 : mrcc  (arbitrary order and MRCC methods)
   Jiri Pittner, Ondrej Demel                    : Mk-CCSD
   Frank Weinhold                                : gennbo (NPA and NBO analysis)
   Christopher J. Cramer and Donald G. Truhlar   : smd solvation model
   Lars Goerigk                                  : TD-DFT with DH, B97 family of functionals
   V. Asgeirsson, H. Jonsson                     : NEB implementation
   FAccTs GmbH                                   : IRC, NEB, NEB-TS, DLPNO-Multilevel, CI-OPT
                                                   MM, QMMM, 2- and 3-layer-ONIOM, Crystal-QMMM,
                                                   LR-CPCM, SF, NACMEs, symmetry and pop. for TD-DFT,
                                                   nearIR, NL-DFT gradient (VV10), updates on ESD,
                                                   ML-optimized integration grids
   S Lehtola, MJT Oliveira, MAL Marques          : LibXC Library
   Liviu Ungur et al                             : ANISO software


 Your calculation uses the libint2 library for the computation of 2-el integrals
 For citations please refer to: http://libint.valeyev.net

 Your ORCA version has been built with support for libXC version: 5.1.0
 For citations please refer to: https://tddft.org/programs/libxc/

 This ORCA versions uses:
   CBLAS   interface :  Fast vector & matrix operations
   LAPACKE interface :  Fast linear algebra routines
   Shared memory     :  Shared parallel matrices


================================================================================

----- Orbital basis set information -----
Your calculation utilizes the basis: cc-pVTZ 
       H, B-Ne : Obtained from the ccRepo (grant-hill.group.shef.ac.uk/ccrepo) Feb. 2017
                 T. H. Dunning, Jr., J. Chem. Phys. 90, 1007 (1989)
            He : Obtained from the ccRepo (grant-hill.group.shef.ac.uk/ccrepo) Feb. 2017
                 D. E. Woon, T. H. Dunning, Jr., J. Chem. Phys. 100, 2975 (1994)
  Li-Be, Na-Mg : Obtained from the ccRepo (grant-hill.group.shef.ac.uk/ccrepo) Feb. 2017
                 B. P. Prascher, D. E. Woon, K. A. Peterson, T. H. Dunning, Jr., A. K. Wilson, Theor. Chem. Acc. 128, 69 (2011)
         Al-Ar : Obtained from the ccRepo (grant-hill.group.shef.ac.uk/ccrepo) Feb. 2017
                 D. E. Woon, T. H. Dunning, Jr., J. Chem. Phys. 98, 1358 (1993)
            Ca : Obtained from the Peterson Research Group Website (tyr0.chem.wsu.edu/~kipeters) Feb. 2017
                 J. Koput, K. A. Peterson, J. Phys. Chem. 106, 9595 (2002)
         Sc-Zn : Obtained from the ccRepo (grant-hill.group.shef.ac.uk/ccrepo) Feb. 2017
                 N. B. Balabanov, K. A. Peterson, J. Chem. Phys. 123, 064107 (2005)
                 N. B. Balabanov, K. A. Peterson, J. Chem. Phys. 125, 074110 (2006)
         Ga-Kr : Obtained from the ccRepo (grant-hill.group.shef.ac.uk/ccrepo) Feb. 2017
                 A. K. Wilson, D. E. Woon, K. A. Peterson, T. H. Dunning, Jr., J. Chem. Phys. 110, 7667 (1999)
             Y : Obtained from the ccRepo (grant-hill.group.shef.ac.uk/ccrepo) Feb. 2017
                 K. A. Peterson, D. Figgen, M. Dolg, H. Stoll, J. Chem. Phys. 126, 124101 (2007)
        Ag, Au : Obtained from the Peterson Research Group Website (tyr0.chem.wsu.edu/~kipeters) Feb. 2017
                 K. A. Peterson, C. Puzzarini, Theor. Chem. Acc. 114, 283 (2005)

================================================================================
                                        WARNINGS
                       Please study these warnings very carefully!
================================================================================

WARNING: Gradients needed for Numerical Frequencies
  ===> : Setting RunTyp to EnGrad

WARNING: your system is open-shell and RHF/RKS was chosen
  ===> : WILL SWITCH to UHF/UKS


WARNING: The frozen-core approximation for MP2-gradient calculations is turned on by default.

WARNING: Post HF methods need fully converged wavefunctions
  ===> : Setting SCFConvForced true
         You can overwrite this default with %scf ConvForced false 


INFO   : the flag for use of the SHARK integral package has been found!

================================================================================
                                       INPUT FILE
================================================================================
NAME = ph3+.inp
|  1> # avogadro generated ORCA input file 
|  2> # PH+ DUPLETO - FREQ
|  3> # 
|  4> ! MP2 cc-pvtz LARGEPRINT  NUMFREQ
|  5> %maxcore 3000
|  6> 
|  7> %freq
|  8>     Increment 0.001
|  9> end
| 10> 
| 11> * xyz 1 2
| 12>   P   -4.07918187874577      0.44390478568274      0.00000000000000
| 13>   H   -2.67001812125423      0.28143521431726      0.00000000000000
| 14> *
| 15> 
| 16>                          ****END OF INPUT****
================================================================================

                     *******************************
                     * Energy+Gradient Calculation *
                     *******************************

---------------------------------
CARTESIAN COORDINATES (ANGSTROEM)
---------------------------------
  P     -4.079182    0.443905    0.000000
  H     -2.670018    0.281435    0.000000

----------------------------
CARTESIAN COORDINATES (A.U.)
----------------------------
  NO LB      ZA    FRAG     MASS         X           Y           Z
   0 P    15.0000    0    30.974   -7.708537    0.838858    0.000000
   1 H     1.0000    0     1.008   -5.045603    0.531835    0.000000

--------------------------------
INTERNAL COORDINATES (ANGSTROEM)
--------------------------------
 P      0   0   0     0.000000000000     0.00000000     0.00000000
 H      1   0   0     1.418498804035     0.00000000     0.00000000

---------------------------
INTERNAL COORDINATES (A.U.)
---------------------------
 P      0   0   0     0.000000000000     0.00000000     0.00000000
 H      1   0   0     2.680574260920     0.00000000     0.00000000

---------------------
BASIS SET INFORMATION
---------------------
There are 2 groups of distinct atoms

 Group   1 Type P   : 41s16p2d1f contracted to 5s4p2d1f pattern {13131311/7711/11/1}
 Group   2 Type H   : 5s2p1d contracted to 3s2p1d pattern {311/11/1}

Atom   0P    basis set group =>   1
Atom   1H    basis set group =>   2

-------------------------
BASIS SET IN INPUT FORMAT
-------------------------

 # Basis set for element : H 
 NewGTO H 
 S 3 
   1      33.8700000000      0.0254948632
   2       5.0950000000      0.1903627659
   3       1.1590000000      0.8521620222
 S 1 
   1       0.3258000000      1.0000000000
 S 1 
   1       0.1027000000      1.0000000000
 P 1 
   1       1.4070000000      1.0000000000
 P 1 
   1       0.3880000000      1.0000000000
 D 1 
   1       1.0570000000      1.0000000000
  end;

 # Basis set for element : P 
 NewGTO P 
 S 13 
   1  312400.0000000000      0.0000576896
   2   46800.0000000000      0.0004482466
   3   10650.0000000000      0.0023491311
   4    3018.0000000000      0.0097815718
   5     986.8000000000      0.0341429365
   6     357.4000000000      0.1001929560
   7     139.6000000000      0.2343461686
   8      57.6300000000      0.3823918499
   9      24.6000000000      0.3180529418
  10      10.1200000000      0.0707709991
  11       4.2830000000     -0.0018177896
  12       1.8050000000      0.0021615617
  13       0.2782000000      0.0004322494
 S 13 
   1  312400.0000000000     -0.0000163802
   2   46800.0000000000     -0.0001272335
   3   10650.0000000000     -0.0006686252
   4    3018.0000000000     -0.0027953037
   5     986.8000000000     -0.0099282274
   6     357.4000000000     -0.0302445665
   7     139.6000000000     -0.0778847053
   8      57.6300000000     -0.1567245715
   9      24.6000000000     -0.1980427537
  10      10.1200000000      0.0379712515
  11       4.2830000000      0.5527515441
  12       1.8050000000      0.5426114525
  13       0.2782000000     -0.0096759429
 S 13 
   1  312400.0000000000      0.0000068657
   2   46800.0000000000      0.0000532820
   3   10650.0000000000      0.0002804210
   4    3018.0000000000      0.0011707898
   5     986.8000000000      0.0041735911
   6     357.4000000000      0.0127204967
   7     139.6000000000      0.0331527664
   8      57.6300000000      0.0676712468
   9      24.6000000000      0.0898310189
  10      10.1200000000     -0.0203052324
  11       4.2830000000     -0.3132804090
  12       1.8050000000     -0.5636879055
  13       0.2782000000      1.1174940737
 S 1 
   1       0.6158000000      1.0000000000
 S 1 
   1       0.1055000000      1.0000000000
 P 7 
   1     504.9000000000      0.0024336604
   2     119.4000000000      0.0193055595
   3      37.9600000000      0.0884731069
   4      13.9500000000      0.2547019811
   5       5.4570000000      0.4401992427
   6       2.1770000000      0.3836320063
   7       0.2877000000     -0.0039463371
 P 7 
   1     504.9000000000     -0.0009542989
   2     119.4000000000     -0.0076640257
   3      37.9600000000     -0.0354659253
   4      13.9500000000     -0.1061647164
   5       5.4570000000     -0.1872105860
   6       2.1770000000     -0.1814958198
   7       0.2877000000      0.9916726446
 P 1 
   1       0.8010000000      1.0000000000
 P 1 
   1       0.0971400000      1.0000000000
 D 1 
   1       0.2160000000      1.0000000000
 D 1 
   1       0.6520000000      1.0000000000
 F 1 
   1       0.4520000000      1.0000000000
  end;

------------------------------------------------------------------------------
                           ORCA GTO INTEGRAL CALCULATION
------------------------------------------------------------------------------
------------------------------------------------------------------------------
                   ___                                                        
                  /   \      - P O W E R E D   B Y -                         
                 /     \                                                     
                 |  |  |   _    _      __       _____    __    __             
                 |  |  |  | |  | |    /  \     |  _  \  |  |  /  |          
                  \  \/   | |  | |   /    \    | | | |  |  | /  /          
                 / \  \   | |__| |  /  /\  \   | |_| |  |  |/  /          
                |  |  |   |  __  | /  /__\  \  |    /   |      \           
                |  |  |   | |  | | |   __   |  |    \   |  |\   \          
                \     /   | |  | | |  |  |  |  | |\  \  |  | \   \       
                 \___/    |_|  |_| |__|  |__|  |_| \__\ |__|  \__/        
                                                                              
                      - O R C A' S   B I G   F R I E N D -                    
                                      &                                       
                       - I N T E G R A L  F E E D E R -                       
                                                                              
 v1 FN, 2020, v2 2021                                                         
------------------------------------------------------------------------------


Reading SHARK input file ph3+.SHARKINP.tmp ... SHARK General Contraction Test:  (Partially) Generally contracted basis detected
   -> Decontract basis set ...  ok (NBasis(old)=48 Nbasis(new)=73 NShells(old)=18 NShells(new)=33
   -> Initialize Partial General Contraction ...  ok
   -> Checking for pre-screening matrix
   -> Pre-screening matrix *NOT* found on disk - recalculating with NShells=33
   -> Leaving CheckPreScreeningMatrix
   -> Pre-screening check done
   -> done initializing partial contraction
SHARK Warning: The basis set dimension has changed.
   -> Redoing pre-screening ...  ok
   -> Storing Pre-screening   ... ok
   -> Redoing Shell Pair Data ... ok
ok
----------------------
SHARK INTEGRAL PACKAGE
----------------------

Number of atoms                             ...      2
Number of basis functions                   ...     73
Number of shells                            ...     33
Maximum angular momentum                    ...      3
Integral batch strategy                     ... SHARK/LIBINT Hybrid
RI-J (if used) integral strategy            ... SPLIT-RIJ (Revised 2003 algorithm where possible)
Printlevel                                  ...      2
Contraction scheme used                     ... PARTIAL GENERAL contraction
Coulomb Range Separation                    ... NOT USED
Exchange Range Separation                   ... NOT USED
Finite Nucleus Model                        ... NOT USED
Auxiliary Coulomb fitting basis             ... NOT available
Auxiliary J/K fitting basis                 ... NOT available
Auxiliary Correlation fitting basis         ... NOT available
Auxiliary 'external' fitting basis          ... NOT available
Integral threshold                          ...     2.500000e-11
Primitive cut-off                           ...     2.500000e-12
Primitive pair pre-selection threshold      ...     2.500000e-12

Calculating pre-screening integrals         ... done (  0.1 sec) Dimension = 33
Calculating pre-screening integrals (ORCA)  ... done (  0.3 sec) Dimension = 18
Organizing shell pair data                  ... done (  0.0 sec)
Shell pair information
Total number of shell pairs                 ...       561
Shell pairs after pre-screening             ...       560
Total number of primitive shell pairs       ...       633
Primitive shell pairs kept                  ...       609
          la=0 lb=0:    171 shell pairs
          la=1 lb=0:    198 shell pairs
          la=1 lb=1:     66 shell pairs
          la=2 lb=0:     54 shell pairs
          la=2 lb=1:     33 shell pairs
          la=2 lb=2:      6 shell pairs
          la=3 lb=0:     17 shell pairs
          la=3 lb=1:     11 shell pairs
          la=3 lb=2:      3 shell pairs
          la=3 lb=3:      1 shell pairs

Calculating one electron integrals          ... done (  0.0 sec)
Calculating Nuclear repulsion               ... done (  0.0 sec) ENN=      5.595815873742 Eh

SHARK setup successfully completed in   0.5 seconds

Maximum memory used throughout the entire GTOINT-calculation: 46.8 MB
-------------------------------------------------------------------------------
                                 ORCA SCF
-------------------------------------------------------------------------------

------------
SCF SETTINGS
------------
Hamiltonian:
 Ab initio Hamiltonian  Method          .... Hartree-Fock(GTOs)


General Settings:
 Integral files         IntName         .... ph3+
 Hartree-Fock type      HFTyp           .... UHF
 Total Charge           Charge          ....    1
 Multiplicity           Mult            ....    2
 Number of Electrons    NEL             ....   15
 Basis Dimension        Dim             ....   48
 Nuclear Repulsion      ENuc            ....      5.5958158737 Eh

Convergence Acceleration:
 DIIS                   CNVDIIS         .... on
   Start iteration      DIISMaxIt       ....    12
   Startup error        DIISStart       ....  0.200000
   # of expansion vecs  DIISMaxEq       ....     5
   Bias factor          DIISBfac        ....   1.050
   Max. coefficient     DIISMaxC        ....  10.000
 Trust-Rad. Augm. Hess. CNVTRAH         .... auto
   Auto Start mean grad. ratio tolernc. ....  1.125000
   Auto Start start iteration           ....    20
   Auto Start num. interpolation iter.  ....    10
   Max. Number of Micro iterations      ....    16
   Max. Number of Macro iterations      .... Maxiter - #DIIS iter
   Number of Davidson start vectors     ....     2
   Converg. threshold I  (grad. norm)   ....   1.000e-05
   Converg. threshold II (energy diff.) ....   1.000e-08
   Grad. Scal. Fac. for Micro threshold ....   0.100
   Minimum threshold for Micro iter.    ....   0.010
   NR start threshold (gradient norm)   ....   0.001
   Initial trust radius                 ....   0.400
   Minimum AH scaling param. (alpha)    ....   1.000
   Maximum AH scaling param. (alpha)    .... 1000.000
   Orbital update algorithm             .... Taylor
   White noise on init. David. guess    .... on
   Maximum white noise                  ....   0.010
   Quad. conv. algorithm                .... NR
 SOSCF                  CNVSOSCF        .... off
 Level Shifting         CNVShift        .... on
   Level shift para.    LevelShift      ....    0.2500
   Turn off err/grad.   ShiftErr        ....    0.0010
 Zerner damping         CNVZerner       .... off
 Static damping         CNVDamp         .... on
   Fraction old density DampFac         ....    0.7000
   Max. Damping (<1)    DampMax         ....    0.9800
   Min. Damping (>=0)   DampMin         ....    0.0000
   Turn off err/grad.   DampErr         ....    0.1000
 Fernandez-Rico         CNVRico         .... off

SCF Procedure:
 Maximum # iterations   MaxIter         ....   125
 SCF integral mode      SCFMode         .... Direct
   Integral package                     .... SHARK and LIBINT hybrid scheme
 Reset frequency        DirectResetFreq ....    20
 Integral Threshold     Thresh          ....  2.500e-11 Eh
 Primitive CutOff       TCut            ....  2.500e-12 Eh

Convergence Tolerance:
 Convergence Check Mode ConvCheckMode   .... Total+1el-Energy
 Convergence forced     ConvForced      .... 1
 Energy Change          TolE            ....  1.000e-08 Eh
 1-El. energy change                    ....  1.000e-05 Eh
 DIIS Error             TolErr          ....  5.000e-07


Diagonalization of the overlap matrix:
Smallest eigenvalue                        ... 4.426e-03
Time for diagonalization                   ...    0.028 sec
Threshold for overlap eigenvalues          ... 1.000e-08
Number of eigenvalues below threshold      ... 0
Time for construction of square roots      ...    0.003 sec
Total time needed                          ...    0.031 sec

SHARK General Contraction Test:  (Partially) Generally contracted basis detected
   -> Decontract basis set ...  ok (NBasis(old)=48 Nbasis(new)=73 NShells(old)=18 NShells(new)=33
   -> Initialize Partial General Contraction ...  ok
   -> Checking for pre-screening matrix
   -> Pre-screening matrix found on disk - Trying to read with NShells=33
   -> Passing Pre-screening matrix on to SHARK ...ok
   -> Leaving CheckPreScreeningMatrix
   -> Pre-screening check done
   -> done initializing partial contraction
SHARK Warning: The basis set dimension has changed.
   -> Pre-screening successfully read from disk
   -> Pre-screening set to shark
   -> Redoing Shell Pair Data ... ok
----------------------
SHARK INTEGRAL PACKAGE
----------------------

Number of atoms                             ...      2
Number of basis functions                   ...     73
Number of shells                            ...     33
Maximum angular momentum                    ...      3
Integral batch strategy                     ... SHARK/LIBINT Hybrid
RI-J (if used) integral strategy            ... SPLIT-RIJ (Revised 2003 algorithm where possible)
Printlevel                                  ...      2
Contraction scheme used                     ... PARTIAL GENERAL contraction
Coulomb Range Separation                    ... NOT USED
Exchange Range Separation                   ... NOT USED
Finite Nucleus Model                        ... NOT USED
Auxiliary Coulomb fitting basis             ... NOT available
Auxiliary J/K fitting basis                 ... NOT available
Auxiliary Correlation fitting basis         ... NOT available
Auxiliary 'external' fitting basis          ... NOT available
Integral threshold                          ...     2.500000e-11
Primitive cut-off                           ...     2.500000e-12
Primitive pair pre-selection threshold      ...     2.500000e-12

Time for model grid setup =    0.036 sec

------------------------------
INITIAL GUESS: MODEL POTENTIAL
------------------------------
Loading Hartree-Fock densities                     ... done
Calculating cut-offs                               ... done
Initializing the effective Hamiltonian             ... done
Setting up the integral package (SHARK)            ... done
Starting the Coulomb interaction                   ...     -> Generating integrals - 
    -> L=0 0 :     0.005 sec done=      3591 skipped=         0 prim-skipped=         0
    -> L=1 0 :     0.005 sec done=      4158 skipped=         0 prim-skipped=         0
    -> L=1 1 :     0.002 sec done=      1386 skipped=         0 prim-skipped=         0
    -> L=2 0 :     0.001 sec done=      1122 skipped=         8 prim-skipped=         0
    -> L=2 1 :     0.001 sec done=       693 skipped=         0 prim-skipped=         0
    -> L=2 2 :     0.001 sec done=       126 skipped=         0 prim-skipped=         0
    -> L=3 0 :     0.001 sec done=       344 skipped=         7 prim-skipped=         0
    -> L=3 1 :     0.000 sec done=       231 skipped=         0 prim-skipped=         0
    -> L=3 2 :     0.001 sec done=        63 skipped=         0 prim-skipped=         0
    -> L=3 3 :     0.000 sec done=        21 skipped=         0 prim-skipped=         0
done (   0.0 sec)
Reading the grid                                   ... done
Mapping shells                                     ... done
Starting the XC term evaluation                    ... done (   0.0 sec)
Transforming the Hamiltonian                       ... done (   0.0 sec)
Diagonalizing the Hamiltonian                      ... done (   0.0 sec)
Back transforming the eigenvectors                 ... done (   0.0 sec)
Now organizing SCF variables                       ... done
                      ------------------
                      INITIAL GUESS DONE (   0.1 sec)
                      ------------------
----------------------
INITIAL GUESS ORBITALS
----------------------
                      0         1         2         3         4         5   
                 -76.01215  -6.31364  -4.56032  -4.55776  -4.55776  -0.57529
                   1.00000   1.00000   1.00000   1.00000   1.00000   1.00000
                  --------  --------  --------  --------  --------  --------
  0P   1s         1.001350  0.009795  0.000305 -0.000000 -0.000000 -0.001883
  0P   2s         0.008703 -0.908872 -0.000548 -0.000000  0.000002 -0.027573
  0P   3s         0.006449  0.027821  0.003618 -0.000000 -0.000005  0.548449
  0P   4s        -0.007424 -0.112460 -0.000999  0.000000  0.000001  0.087262
  0P   5s        -0.001291 -0.008957  0.003175  0.000000 -0.000005  0.274408
  0P   1pz       -0.000000 -0.000000  0.000000 -0.953437 -0.000000 -0.000000
  0P   1px        0.001133  0.000719  0.948762  0.000000 -0.111201 -0.019968
  0P   1py       -0.000131 -0.000082 -0.111410  0.000000 -0.946928  0.002273
  0P   2pz       -0.000000 -0.000000  0.000000 -0.000641 -0.000000 -0.000000
  0P   2px        0.002475  0.006538  0.005838  0.000000 -0.000082  0.103049
  0P   2py       -0.000285 -0.000754 -0.000675  0.000000 -0.000634 -0.011921
  0P   3pz        0.000000  0.000000  0.000000 -0.090360 -0.000000  0.000000
  0P   3px       -0.000499 -0.002247  0.089712  0.000000 -0.010539  0.040268
  0P   3py        0.000058  0.000260 -0.010535  0.000000 -0.089745 -0.004609
  0P   4pz       -0.000000  0.000000  0.000000 -0.000859 -0.000000  0.000000
  0P   4px        0.000064 -0.000655  0.002362  0.000000 -0.000102  0.024838
  0P   4py       -0.000007  0.000076 -0.000274  0.000000 -0.000854 -0.002834
  0P   1dz2      -0.000559 -0.001463 -0.001253  0.000000  0.000001 -0.008099
  0P   1dxz      -0.000000 -0.000000  0.000000  0.000102  0.000000 -0.000000
  0P   1dyz       0.000000  0.000000 -0.000000 -0.000013 -0.000000  0.000000
  0P   1dx2y2     0.000943  0.002466  0.002114 -0.000000  0.000021  0.013561
  0P   1dxy      -0.000220 -0.000576 -0.000494 -0.000000  0.000102 -0.003170
  0P   2dz2      -0.000212 -0.000253 -0.001066 -0.000000  0.000002 -0.013272
  0P   2dxz       0.000000  0.000000  0.000000 -0.000551 -0.000000  0.000000
  0P   2dyz      -0.000000 -0.000000  0.000000  0.000064  0.000000 -0.000000
  0P   2dx2y2     0.000358  0.000429  0.001797  0.000000 -0.000129  0.022501
  0P   2dxy      -0.000084 -0.000100 -0.000422  0.000000 -0.000540 -0.005249
  0P   1f0        0.000000  0.000000 -0.000000  0.000135  0.000000 -0.000000
  0P   1f+1      -0.000376 -0.000858 -0.001077 -0.000000  0.000008 -0.005049
  0P   1f-1       0.000043  0.000099  0.000125 -0.000000  0.000056  0.000637
  0P   1f+2      -0.000000  0.000000  0.000000 -0.000172 -0.000000 -0.000000
  0P   1f-2       0.000000  0.000000 -0.000000  0.000040  0.000000 -0.000000
  0P   1f+3      -0.000460 -0.001049 -0.001317 -0.000000  0.000074 -0.006161
  0P   1f-3       0.000165  0.000376  0.000474 -0.000000  0.000202  0.002190
  1H   1s         0.000253  0.000493  0.000959  0.000000 -0.000002  0.118436
  1H   2s        -0.003079 -0.008109 -0.006339 -0.000000  0.000009  0.163381
  1H   3s         0.000212  0.002053 -0.002048 -0.000000  0.000003  0.033890
  1H   1pz       -0.000000  0.000000  0.000000 -0.000034 -0.000000 -0.000000
  1H   1px        0.000049  0.000009  0.000224  0.000000 -0.000004 -0.010872
  1H   1py       -0.000006 -0.000001 -0.000026  0.000000 -0.000033  0.001245
  1H   2pz        0.000000  0.000000 -0.000000  0.000048  0.000000  0.000000
  1H   2px        0.001699  0.004251  0.003922 -0.000000 -0.000001 -0.016335
  1H   2py       -0.000196 -0.000490 -0.000452 -0.000000  0.000047  0.001892
  1H   1dz2       0.000118  0.000154  0.000453  0.000000 -0.000001 -0.001623
  1H   1dxz      -0.000000 -0.000000  0.000000 -0.000144 -0.000000 -0.000000
  1H   1dyz       0.000000  0.000000 -0.000000  0.000017  0.000000 -0.000000
  1H   1dx2y2    -0.000199 -0.000260 -0.000763  0.000000 -0.000032  0.002801
  1H   1dxy       0.000047  0.000061  0.000177  0.000000 -0.000141 -0.000656
                      6         7         8         9        10        11   
                  -0.33598  -0.21212  -0.21212  -0.01225   0.12550   0.20458
                   1.00000   1.00000   0.00000   0.00000   0.00000   0.00000
                  --------  --------  --------  --------  --------  --------
  0P   1s        -0.001904 -0.000013  0.000000  0.001428 -0.037266  0.000000
  0P   2s        -0.012938 -0.000080  0.000000  0.001231 -0.260853  0.000000
  0P   3s         0.281431 -0.000097  0.000000 -0.220730 -0.515132  0.000000
  0P   4s         0.049613  0.000013  0.000000 -0.043294 -0.033667  0.000000
  0P   5s         0.318446  0.000533 -0.000000 -0.898193  0.090112 -0.000000
  0P   1pz        0.000000 -0.000000 -0.039091  0.000000 -0.000000  0.004601
  0P   1px        0.042654 -0.004424  0.000000  0.018495 -0.074878 -0.000000
  0P   1py       -0.004922 -0.038765  0.000000 -0.002061  0.008577  0.000000
  0P   2pz       -0.000000  0.000000  0.521969  0.000000 -0.000000 -0.020166
  0P   2px       -0.367154  0.059910 -0.000000 -0.323220 -0.237820 -0.000000
  0P   2py        0.042316  0.518646 -0.000000  0.037497  0.027177  0.000000
  0P   3pz       -0.000000  0.000000  0.183062 -0.000000  0.000000 -0.012696
  0P   3px       -0.133466  0.020956 -0.000000 -0.124191 -0.005468 -0.000000
  0P   3py        0.015392  0.181780 -0.000000  0.014294  0.000613 -0.000000
  0P   4pz       -0.000000  0.000000  0.452586  0.000000  0.000000 -0.077901
  0P   4px       -0.180458  0.052175 -0.000000 -1.024694  0.198013  0.000000
  0P   4py        0.020804  0.449481 -0.000000  0.117963 -0.022556 -0.000000
  0P   1dz2       0.016303 -0.000175  0.000000 -0.040047  0.177829  0.000000
  0P   1dxz      -0.000000  0.000000  0.021070  0.000000 -0.000000  0.798374
  0P   1dyz      -0.000000 -0.000000 -0.002519 -0.000000 -0.000000 -0.093277
  0P   1dx2y2    -0.027532  0.004959 -0.000000  0.067711 -0.299740 -0.000000
  0P   1dxy       0.006426  0.020666 -0.000000 -0.015907  0.070193 -0.000000
  0P   2dz2       0.021606  0.000065 -0.000000 -0.046193  0.064455  0.000000
  0P   2dxz       0.000000  0.000000  0.009801  0.000000 -0.000000  0.169182
  0P   2dyz      -0.000000 -0.000000 -0.001042  0.000000 -0.000000 -0.019525
  0P   2dx2y2    -0.036416  0.002253 -0.000000  0.077771 -0.108792 -0.000000
  0P   2dxy       0.008519  0.009524 -0.000000 -0.018179  0.025381 -0.000000
  0P   1f0       -0.000000 -0.000000 -0.003125 -0.000000 -0.000000 -0.009682
  0P   1f+1       0.006461 -0.000152  0.000000 -0.003970  0.007972  0.000000
  0P   1f-1      -0.000719 -0.001184  0.000000  0.000387 -0.001000 -0.000000
  0P   1f+2      -0.000000  0.000000  0.003788  0.000000  0.000000  0.011823
  0P   1f-2      -0.000000 -0.000000 -0.000871  0.000000  0.000000 -0.002817
  0P   1f+3       0.007878 -0.001714  0.000000 -0.004877  0.009811  0.000000
  0P   1f-3      -0.002830 -0.004539  0.000000  0.001791 -0.003540 -0.000000
  1H   1s        -0.152647 -0.000002  0.000000  0.124196 -0.092839 -0.000000
  1H   2s        -0.265493 -0.000297  0.000000  0.260503 -0.607451  0.000000
  1H   3s        -0.149332 -0.000392  0.000000  1.517621  1.255406  0.000000
  1H   1pz       -0.000000  0.000000  0.005485  0.000000  0.000000  0.002168
  1H   1px        0.007691  0.000622 -0.000000  0.014211  0.024306  0.000000
  1H   1py       -0.000876  0.005414 -0.000000 -0.001651 -0.002785 -0.000000
  1H   2pz        0.000000  0.000000  0.027949 -0.000000 -0.000000  0.145941
  1H   2px        0.008635  0.003356 -0.000000  0.002949 -0.057116 -0.000000
  1H   2py       -0.001006  0.027778 -0.000000 -0.000288  0.006495  0.000000
  1H   1dz2       0.001023 -0.000006  0.000000  0.001632 -0.003492 -0.000000
  1H   1dxz       0.000000 -0.000000 -0.003271  0.000000 -0.000000  0.005230
  1H   1dyz       0.000000  0.000000  0.000370  0.000000 -0.000000 -0.000636
  1H   1dx2y2    -0.001812 -0.000772  0.000000 -0.002682  0.005750  0.000000
  1H   1dxy       0.000424 -0.003202  0.000000  0.000621 -0.001338 -0.000000
                     12        13        14        15        16        17   
                   0.20460   0.22583   0.23772   0.23785   0.23830   0.23847
                   0.00000   0.00000   0.00000   0.00000   0.00000   0.00000
                  --------  --------  --------  --------  --------  --------
  0P   1s        -0.000088 -0.070991  0.000000 -0.000399 -0.000000 -0.000114
  0P   2s        -0.000614 -0.502994  0.000000 -0.002804 -0.000000 -0.000800
  0P   3s        -0.001227 -1.047406  0.000000 -0.005635 -0.000000 -0.001653
  0P   4s        -0.000084 -0.098458  0.000000 -0.000502 -0.000000 -0.000019
  0P   5s         0.001630  1.135165 -0.000000  0.007515  0.000000 -0.000314
  0P   1pz        0.000000 -0.000000 -0.035235 -0.000000  0.279004  0.000000
  0P   1px        0.000886  0.238924 -0.000000  0.007927  0.000000  0.031888
  0P   1py        0.005474 -0.028549  0.000000  0.057442 -0.000000  0.273246
  0P   2pz       -0.000000 -0.000000 -0.147844 -0.000000  1.171063  0.000000
  0P   2px       -0.001001  0.960226 -0.000000  0.032949  0.000000  0.134434
  0P   2py       -0.016678 -0.114716  0.000000  0.240852 -0.000000  1.147198
  0P   3pz       -0.000000 -0.000000 -0.012152 -0.000000  0.096420  0.000000
  0P   3px       -0.001411  0.065485 -0.000000  0.002656 -0.000000  0.011253
  0P   3py       -0.012554 -0.007793  0.000000  0.019704 -0.000000  0.094599
  0P   4pz        0.000000  0.000000  0.167124  0.000000 -1.322400 -0.000000
  0P   4px       -0.010137 -1.061116  0.000000 -0.035600  0.000000 -0.153539
  0P   4py       -0.081173  0.126941 -0.000000 -0.272301  0.000000 -1.294937
  0P   1dz2      -0.001755  0.061703 -0.000000  0.751428  0.000000 -0.157427
  0P   1dxz       0.000000  0.000000 -0.096507  0.000000 -0.052257 -0.000000
  0P   1dyz      -0.000000 -0.000000 -0.874764  0.000000 -0.105824 -0.000000
  0P   1dx2y2     0.181834 -0.111971 -0.000000  0.421082  0.000000 -0.099106
  0P   1dxy       0.782653  0.025585  0.000000 -0.105964 -0.000000 -0.019126
  0P   2dz2      -0.000114 -0.003004 -0.000000  0.145623  0.000000 -0.030737
  0P   2dxz       0.000000  0.000000 -0.021382 -0.000000  0.009078  0.000000
  0P   2dyz      -0.000000 -0.000000 -0.168802  0.000000 -0.022703 -0.000000
  0P   2dx2y2     0.038758  0.003730 -0.000000  0.082457  0.000000 -0.015070
  0P   2dxy       0.165870 -0.001150  0.000000 -0.016300 -0.000000  0.014329
  0P   1f0       -0.000000  0.000000 -0.000259 -0.000000  0.001744  0.000000
  0P   1f+1      -0.000505 -0.006181 -0.000000  0.006523  0.000000 -0.001042
  0P   1f-1      -0.003734  0.000761  0.000000 -0.000661 -0.000000  0.000770
  0P   1f+2      -0.000000  0.000000 -0.001743  0.000000 -0.002247 -0.000000
  0P   1f-2      -0.000000  0.000000 -0.008906  0.000000 -0.000457 -0.000000
  0P   1f+3      -0.005074 -0.007366  0.000000 -0.004932 -0.000000  0.001775
  0P   1f-3      -0.014123  0.002597 -0.000000  0.002476  0.000000  0.001963
  1H   1s         0.000001 -0.006658  0.000000  0.000006 -0.000000 -0.000170
  1H   2s         0.000004 -0.040034  0.000000 -0.001345 -0.000000  0.000332
  1H   3s        -0.000413  0.074146 -0.000000 -0.000806  0.000000  0.002744
  1H   1pz        0.000000  0.000000  0.000500  0.000000 -0.003780 -0.000000
  1H   1px        0.000227 -0.002827  0.000000 -0.000105  0.000000 -0.000396
  1H   1py        0.002005  0.000340 -0.000000 -0.000803  0.000000 -0.003691
  1H   2pz        0.000000 -0.000000 -0.003991 -0.000000  0.028404  0.000000
  1H   2px        0.016907  0.029923 -0.000000  0.001270  0.000000  0.002549
  1H   2py        0.145408 -0.003748 -0.000000  0.006277 -0.000000  0.027087
  1H   1dz2      -0.000029  0.006220 -0.000000  0.003136  0.000000 -0.000675
  1H   1dxz       0.000000  0.000000 -0.000016  0.000000 -0.003053 -0.000000
  1H   1dyz       0.000000 -0.000000 -0.003629 -0.000000 -0.000120 -0.000000
  1H   1dx2y2     0.001138 -0.010503 -0.000000  0.001527  0.000000 -0.001026
  1H   1dxy       0.005111  0.002468  0.000000 -0.001018 -0.000000 -0.002783
                     18        19        20        21        22        23   
                   0.34765   0.49392   0.73706   0.73734   0.99038   1.14028
                   0.00000   0.00000   0.00000   0.00000   0.00000   0.00000
                  --------  --------  --------  --------  --------  --------
  0P   1s        -0.083948 -0.018578  0.000021 -0.000000 -0.054990  0.000000
  0P   2s        -0.611064 -0.133164  0.000171 -0.000000 -0.386756  0.000000
  0P   3s        -1.252067 -0.181025  0.000382 -0.000000 -0.675394 -0.000000
  0P   4s        -0.288437 -0.117885  0.000086  0.000000  0.175842 -0.000000
  0P   5s         3.925477  1.352745 -0.000208  0.000000 -2.260227 -0.000000
  0P   1pz        0.000000  0.000000 -0.000000 -0.036781 -0.000000  0.019950
  0P   1px        0.087223  0.184480  0.004400  0.000000 -0.723982 -0.000000
  0P   1py       -0.009821 -0.021211  0.036635  0.000000  0.083501 -0.000000
  0P   2pz        0.000000  0.000000 -0.000000 -0.172737 -0.000000  0.051448
  0P   2px       -0.136196  0.605249  0.020245  0.000000 -1.792461 -0.000000
  0P   2py        0.016566 -0.069688  0.171644  0.000000  0.206731 -0.000000
  0P   3pz        0.000000 -0.000000  0.000000 -0.025008  0.000000 -0.010745
  0P   3px       -0.165137  0.001718  0.002836 -0.000000  0.135473 -0.000000
  0P   3py        0.019064 -0.000257  0.024669 -0.000000 -0.015644  0.000000
  0P   4pz       -0.000000  0.000000 -0.000000 -0.278767  0.000000 -0.010422
  0P   4px        2.368700  0.923445  0.031761  0.000000 -1.117492 -0.000000
  0P   4py       -0.273990 -0.106472  0.277100 -0.000000  0.128864  0.000000
  0P   1dz2      -0.383309 -0.703623 -0.000167 -0.000000  0.893479  0.000000
  0P   1dxz       0.000000  0.000000 -0.000000 -0.697123 -0.000000  0.903531
  0P   1dyz       0.000000 -0.000000  0.000000  0.080497  0.000000 -0.111861
  0P   1dx2y2     0.646191  1.186607  0.159811  0.000000 -1.506617 -0.000000
  0P   1dxy      -0.150872 -0.277137  0.683641 -0.000000  0.352413  0.000000
  0P   2dz2      -0.046351 -0.087435  0.000276 -0.000000 -0.273046  0.000000
  0P   2dxz       0.000000  0.000000  0.000000 -0.075777  0.000000 -1.197754
  0P   2dyz      -0.000000 -0.000000 -0.000000  0.008483 -0.000000  0.149206
  0P   2dx2y2     0.077561  0.147021  0.017487  0.000000  0.460267  0.000000
  0P   2dxy      -0.018307 -0.034370  0.074219 -0.000000 -0.107902 -0.000000
  0P   1f0        0.000000  0.000000 -0.000000 -0.077488 -0.000000  0.079108
  0P   1f+1      -0.103098 -0.028071  0.003591  0.000000  0.029874 -0.000000
  0P   1f-1       0.011588  0.003055  0.031570 -0.000000 -0.003613  0.000000
  0P   1f+2       0.000000  0.000000  0.000000  0.097764 -0.000000 -0.106047
  0P   1f-2       0.000000  0.000000 -0.000000 -0.022845 -0.000000  0.021420
  0P   1f+3      -0.125927 -0.034331  0.041237  0.000000  0.036837  0.000000
  0P   1f-3       0.045154  0.012339  0.115422 -0.000000 -0.013164 -0.000000
  1H   1s         0.141266 -0.065791  0.000158  0.000000  0.104583  0.000000
  1H   2s        -0.392642 -2.082997 -0.000496 -0.000000  1.798253  0.000000
  1H   3s        -3.242329 -0.130224  0.000159 -0.000000  1.975795  0.000000
  1H   1pz        0.000000  0.000000  0.000000 -0.075796  0.000000 -0.032886
  1H   1px       -0.023588  0.003549  0.008700 -0.000000  0.046138  0.000000
  1H   1py        0.002743 -0.000381  0.075700 -0.000000 -0.005323 -0.000000
  1H   2pz       -0.000000 -0.000000  0.000000  1.239123  0.000000 -0.054325
  1H   2px        0.628026  0.138517 -0.141574  0.000000 -1.865361 -0.000000
  1H   2py       -0.072712 -0.016211 -1.231443 -0.000000  0.214932  0.000000
  1H   1dz2       0.022582  0.016695  0.000146 -0.000000 -0.031074 -0.000000
  1H   1dxz      -0.000000 -0.000000  0.000000 -0.006335 -0.000000  0.063009
  1H   1dyz      -0.000000 -0.000000  0.000000  0.000582  0.000000 -0.007365
  1H   1dx2y2    -0.038047 -0.028332  0.001502  0.000000  0.052490 -0.000000
  1H   1dxy       0.008914  0.006628  0.006172 -0.000000 -0.012245 -0.000000
                     24        25        26        27        28        29   
                   1.14061   1.16335   1.16404   1.24365   1.24469   1.26296
                   0.00000   0.00000   0.00000   0.00000   0.00000   0.00000
                  --------  --------  --------  --------  --------  --------
  0P   1s        -0.000010  0.000133 -0.000000 -0.000000 -0.000085  0.000184
  0P   2s        -0.000110  0.000751 -0.000000 -0.000000 -0.000533  0.001047
  0P   3s        -0.000361  0.000470 -0.000000 -0.000000 -0.000617  0.000651
  0P   4s        -0.000153 -0.000697  0.000000  0.000000  0.000133 -0.000915
  0P   5s        -0.000052 -0.002046  0.000000  0.000000  0.002592 -0.003169
  0P   1pz        0.000000  0.000000 -0.000786 -0.000333  0.000000 -0.000000
  0P   1px       -0.002696  0.000173 -0.000000  0.000000 -0.000239  0.000153
  0P   1py       -0.020712  0.000480  0.000000  0.000000  0.001094  0.000845
  0P   2pz        0.000000  0.000000 -0.000806 -0.000327  0.000000 -0.000000
  0P   2px       -0.006663 -0.000504 -0.000000  0.000000  0.000126 -0.000781
  0P   2py       -0.051949  0.000357  0.000000  0.000000  0.001170  0.001188
  0P   3pz       -0.000000 -0.000000  0.001121  0.000487 -0.000000  0.000000
  0P   3px        0.001526 -0.000802  0.000000 -0.000000  0.000678 -0.000987
  0P   3py        0.012009 -0.000743 -0.000000 -0.000000 -0.001560 -0.000997
  0P   4pz       -0.000000 -0.000000  0.000318  0.000073  0.000000  0.000000
  0P   4px        0.001299 -0.001281  0.000000  0.000000  0.001812 -0.002124
  0P   4py        0.010509 -0.000068 -0.000000 -0.000000 -0.000549 -0.000081
  0P   1dz2       0.015924 -0.763670  0.000000  0.000000  0.014601 -0.001071
  0P   1dxz      -0.000000  0.000000  0.108894 -0.004032  0.000000 -0.000000
  0P   1dyz      -0.000000  0.000000  0.876138 -0.009458 -0.000000  0.000000
  0P   1dx2y2    -0.198413 -0.435452  0.000000 -0.000000  0.011053 -0.004251
  0P   1dxy      -0.888280  0.082807 -0.000000  0.000000  0.000813  0.000131
  0P   2dz2      -0.022512  1.072208 -0.000000 -0.000000 -0.040004  0.002760
  0P   2dxz       0.000000 -0.000000 -0.152295  0.008210 -0.000000  0.000000
  0P   2dyz       0.000000 -0.000000 -1.229738  0.035189  0.000000 -0.000000
  0P   2dx2y2     0.261892  0.609191 -0.000000  0.000000 -0.024356  0.003425
  0P   2dxy       1.178006 -0.116895  0.000000 -0.000000  0.000860  0.000513
  0P   1f0       -0.000000  0.000000  0.004816  0.003914 -0.000000 -0.000000
  0P   1f+1      -0.001507  0.028105 -0.000000 -0.000000  0.772383  0.124328
  0P   1f-1      -0.034737 -0.008021  0.000000  0.000000 -0.103760  0.959994
  0P   1f+2      -0.000000 -0.000000 -0.004788 -0.220439 -0.000000 -0.000000
  0P   1f-2       0.000000 -0.000000 -0.026352 -0.962280 -0.000000  0.000000
  0P   1f+3      -0.045709 -0.020388  0.000000  0.000000 -0.568263 -0.091754
  0P   1f-3      -0.121335  0.004029 -0.000000 -0.000000  0.209164 -0.233492
  1H   1s         0.000094 -0.000157 -0.000000 -0.000000  0.000347 -0.000303
  1H   2s         0.000271  0.002473  0.000000  0.000000 -0.002809  0.004189
  1H   3s         0.000217  0.000884 -0.000000 -0.000000 -0.001040  0.001266
  1H   1pz        0.000000 -0.000000 -0.000338  0.000162 -0.000000  0.000000
  1H   1px        0.003799  0.000056  0.000000 -0.000000  0.000008 -0.000086
  1H   1py        0.032745  0.000785 -0.000000  0.000000 -0.000150  0.000099
  1H   2pz       -0.000000 -0.000000 -0.000017 -0.000299 -0.000000 -0.000000
  1H   2px        0.005630 -0.000815 -0.000000  0.000000  0.000533 -0.001092
  1H   2py        0.053856  0.000241  0.000000 -0.000000  0.000307 -0.000302
  1H   1dz2       0.000038  0.006150 -0.000000 -0.000000  0.049055  0.000778
  1H   1dxz      -0.000000 -0.000000 -0.000266 -0.006713  0.000000 -0.000000
  1H   1dyz      -0.000000 -0.000000 -0.006753 -0.056160 -0.000000 -0.000000
  1H   1dx2y2    -0.014358  0.003210 -0.000000  0.000000  0.027566  0.000546
  1H   1dxy      -0.061754 -0.002043  0.000000  0.000000 -0.006148 -0.000162
                     30        31        32        33        34        35   
                   1.26305   1.36672   1.49519   1.49523   1.52552   1.78827
                   0.00000   0.00000   0.00000   0.00000   0.00000   0.00000
                  --------  --------  --------  --------  --------  --------
  0P   1s        -0.000000 -0.006431  0.000000  0.000017 -0.012522  0.000134
  0P   2s        -0.000000 -0.103193  0.000000  0.000075 -0.023803  0.000826
  0P   3s        -0.000000 -0.373739  0.000000 -0.000065  0.231405  0.000956
  0P   4s         0.000000 -0.235321 -0.000000 -0.000156  0.107970 -0.000738
  0P   5s         0.000000 -0.297260 -0.000000 -0.000280  2.357255  0.002171
  0P   1pz        0.001295 -0.000000 -0.144136  0.000000  0.000000  0.000000
  0P   1px        0.000000 -0.181021 -0.000000  0.016131  0.001563 -0.165391
  0P   1py        0.000000  0.021183  0.000000  0.141798  0.001512 -1.432208
  0P   2pz        0.001738 -0.000000 -0.109858 -0.000000  0.000000  0.000000
  0P   2px        0.000000 -0.636037 -0.000000  0.011925  0.806307 -0.216291
  0P   2py        0.000000  0.073655  0.000000  0.107506 -0.090819 -1.879521
  0P   3pz       -0.001612  0.000000  0.234267 -0.000000 -0.000000 -0.000000
  0P   3px        0.000000 -0.177873  0.000000 -0.026502  0.745370  0.212414
  0P   3py       -0.000000  0.020061 -0.000000 -0.230836 -0.088138  1.833284
  0P   4pz       -0.000442  0.000000  0.297784 -0.000000 -0.000000 -0.000000
  0P   4px        0.000000  0.081752 -0.000000 -0.034246  1.575605  0.074862
  0P   4py       -0.000000 -0.009575  0.000000 -0.295379 -0.182430  0.632800
  0P   1dz2      -0.000000 -0.305103  0.000000 -0.000634 -0.720204 -0.001360
  0P   1dxz      -0.002057  0.000000  0.649030 -0.000000  0.000000  0.000000
  0P   1dyz       0.004314 -0.000000 -0.074324 -0.000000 -0.000000 -0.000000
  0P   1dx2y2     0.000000  0.513231 -0.000000 -0.149860  1.212536 -0.036969
  0P   1dxy      -0.000000 -0.119991  0.000000 -0.636366 -0.283288 -0.163402
  0P   2dz2      -0.000000  0.559758 -0.000000  0.000987 -0.084193  0.000773
  0P   2dxz       0.003326 -0.000000 -0.240044 -0.000000 -0.000000 -0.000000
  0P   2dyz      -0.005989  0.000000  0.027094  0.000000  0.000000  0.000000
  0P   2dx2y2     0.000000 -0.942483  0.000000  0.055979  0.144699  0.009771
  0P   2dxy      -0.000000  0.220148 -0.000000  0.235506 -0.033900  0.040041
  0P   1f0       -0.791981 -0.000000 -0.689536  0.000000  0.000000 -0.000000
  0P   1f+1      -0.000000 -0.181294  0.000000  0.032067 -0.712663  0.005299
  0P   1f-1      -0.000000  0.022343 -0.000000  0.280611  0.083785  0.048454
  0P   1f+2      -0.595789 -0.000000  0.869203 -0.000000  0.000000  0.000000
  0P   1f-2       0.133302 -0.000000 -0.202617  0.000000 -0.000000 -0.000000
  0P   1f+3       0.000000 -0.220695  0.000000  0.369378 -0.870528  0.061501
  0P   1f-3       0.000000  0.079147 -0.000000  1.027714  0.311732  0.175770
  1H   1s        -0.000000  0.176862 -0.000000 -0.000177  0.095001  0.000134
  1H   2s        -0.000000 -0.058296  0.000000  0.001018 -2.659959 -0.002892
  1H   3s        -0.000000  0.551929  0.000000 -0.000055 -1.384963 -0.001370
  1H   1pz        0.000233  0.000000  0.064552 -0.000000  0.000000  0.000000
  1H   1px       -0.000000  0.142243 -0.000000 -0.007443 -0.078519 -0.003238
  1H   1py        0.000000 -0.016450  0.000000 -0.064294  0.009128 -0.027265
  1H   2pz       -0.001227 -0.000000 -0.940067  0.000000 -0.000000 -0.000000
  1H   2px        0.000000 -1.191752  0.000000  0.107516  1.586514  0.033401
  1H   2py       -0.000000  0.137687  0.000000  0.934120 -0.183016  0.276616
  1H   1dz2      -0.000000  0.012611 -0.000000 -0.000118  0.011892  0.000088
  1H   1dxz      -0.000210  0.000000  0.008880 -0.000000 -0.000000 -0.000000
  1H   1dyz      -0.000357 -0.000000 -0.000917 -0.000000 -0.000000  0.000000
  1H   1dx2y2    -0.000000 -0.021248  0.000000 -0.002043 -0.020388  0.000317
  1H   1dxy       0.000000  0.004977  0.000000 -0.008711  0.004812  0.000986
                     36        37        38        39        40        41   
                   1.78888   1.99005   2.33297   3.15203   3.15559   3.15572
                   0.00000   0.00000   0.00000   0.00000   0.00000   0.00000
                  --------  --------  --------  --------  --------  --------
  0P   1s        -0.000000 -0.172808  0.124467  0.654316 -0.122771 -0.000000
  0P   2s        -0.000000 -0.929330  0.696042  3.922034 -0.736107 -0.000000
  0P   3s        -0.000000 -0.453592  0.515429  4.031218 -0.757414 -0.000000
  0P   4s         0.000000  1.096489 -0.756099 -3.245965  0.608489  0.000000
  0P   5s         0.000000  2.377943 -0.756014  0.079115 -0.016664 -0.000000
  0P   1pz       -1.441575  0.000000 -0.000000 -0.000000  0.000000 -0.000037
  0P   1px       -0.000000  2.029807 -0.205378  1.398455 -0.263169 -0.000000
  0P   1py       -0.000000 -0.234314  0.023729 -0.161062  0.030407  0.000000
  0P   2pz       -1.891827  0.000000 -0.000000 -0.000000  0.000000 -0.000089
  0P   2px       -0.000000  3.609392 -0.523563  2.707587 -0.510452 -0.000000
  0P   2py       -0.000000 -0.416524  0.060425 -0.311950  0.059045  0.000000
  0P   3pz        1.845306 -0.000000  0.000000  0.000000 -0.000000 -0.000004
  0P   3px        0.000000 -1.714113 -0.034389 -0.962100  0.180036  0.000000
  0P   3py        0.000000  0.197998  0.003893  0.110699 -0.020827 -0.000000
  0P   4pz        0.636827 -0.000000  0.000000  0.000000 -0.000000 -0.000141
  0P   4px        0.000000  0.363860 -0.328431  0.324073 -0.061790 -0.000000
  0P   4py        0.000000 -0.041891  0.037845 -0.037428  0.006723  0.000000
  0P   1dz2      -0.000000 -0.705905  0.203173 -0.626369  0.217055  0.000000
  0P   1dxz      -0.167907  0.000000 -0.000000  0.000000 -0.000000  0.012600
  0P   1dyz       0.018730 -0.000000  0.000000  0.000000 -0.000000  0.111333
  0P   1dx2y2    -0.000000  1.190307 -0.342833  1.096905 -0.151498 -0.000000
  0P   1dxy      -0.000000 -0.278379  0.080116 -0.256268  0.034964  0.000000
  0P   2dz2       0.000000 -0.189183  0.003441 -0.092044  0.008170  0.000000
  0P   2dxz       0.042073 -0.000000  0.000000  0.000000  0.000000 -0.001189
  0P   2dyz      -0.003981  0.000000 -0.000000 -0.000000  0.000000 -0.010635
  0P   2dx2y2     0.000000  0.319345 -0.005842  0.151016 -0.034338 -0.000000
  0P   2dxy       0.000000 -0.074507  0.001384 -0.035374  0.008537  0.000000
  0P   1f0        0.117654  0.000000 -0.000000 -0.000000  0.000000 -0.000012
  0P   1f+1       0.000000 -0.554913 -0.127202 -0.305151  0.257934  0.000000
  0P   1f-1       0.000000  0.064224  0.014626  0.035013 -0.029815 -0.000000
  0P   1f+2      -0.149568  0.000000 -0.000000  0.000000 -0.000000  0.057110
  0P   1f-2       0.035130  0.000000 -0.000000  0.000000 -0.000000  0.244151
  0P   1f+3       0.000000 -0.678827 -0.155269 -0.444255 -0.063673  0.000000
  0P   1f-3       0.000000  0.243552  0.055634  0.159393  0.022137 -0.000000
  1H   1s        -0.000000  0.041797 -1.521607  0.355233 -0.068736 -0.000000
  1H   2s         0.000000 -3.048747  2.339032 -3.126123  0.592335  0.000000
  1H   3s        -0.000000 -0.892543 -0.289469 -0.271633  0.051038  0.000000
  1H   1pz       -0.027455 -0.000000  0.000000  0.000000  0.000000 -0.001938
  1H   1px       -0.000000 -0.012017 -0.021842 -0.342923  0.063483  0.000000
  1H   1py       -0.000000  0.001377  0.002117  0.039656 -0.011646 -0.000000
  1H   2pz        0.279682 -0.000000  0.000000 -0.000000 -0.000000  0.001177
  1H   2px        0.000000  1.732479 -0.458746  1.826749 -0.344800 -0.000000
  1H   2py        0.000000 -0.199539  0.053024 -0.210715  0.042052  0.000000
  1H   1dz2      -0.000000  0.101550  0.092237 -0.285159 -0.848113 -0.000000
  1H   1dxz       0.001027 -0.000000  0.000000 -0.000000  0.000000 -0.117172
  1H   1dyz      -0.000096  0.000000 -0.000000 -0.000000  0.000000 -1.015965
  1H   1dx2y2     0.000000 -0.171106 -0.153426  0.114496 -0.527012 -0.000000
  1H   1dxy       0.000000  0.040029  0.035834 -0.026871  0.124377  0.000000
                     42        43        44        45        46        47   
                   3.43017   3.43222   3.81658   3.81714   3.91987   4.76829
                   0.00000   0.00000   0.00000   0.00000   0.00000   0.00000
                  --------  --------  --------  --------  --------  --------
  0P   1s        -0.000630 -0.000000 -0.000212  0.000000  0.217357  0.518920
  0P   2s        -0.003817 -0.000000 -0.001240  0.000000  1.278501  3.319558
  0P   3s        -0.004123 -0.000000 -0.001266 -0.000000  1.336050  4.192564
  0P   4s         0.003009  0.000000  0.001179 -0.000000 -1.170146 -1.984216
  0P   5s        -0.000300  0.000000  0.000305  0.000000 -0.678219  1.243467
  0P   1pz       -0.000000  0.125566  0.000000 -0.199244 -0.000000 -0.000000
  0P   1px       -0.015799 -0.000000  0.022373  0.000000  0.389862  1.689293
  0P   1py       -0.123755 -0.000000  0.198418  0.000000 -0.044783 -0.194796
  0P   2pz       -0.000000  0.254345  0.000000 -0.441819 -0.000000 -0.000000
  0P   2px       -0.032082 -0.000000  0.049725  0.000000  0.815293  4.120727
  0P   2py       -0.250532 -0.000000  0.439919  0.000000 -0.093645 -0.475172
  0P   3pz        0.000000 -0.118076 -0.000000  0.128461  0.000000  0.000000
  0P   3px        0.014293  0.000000 -0.014266 -0.000000 -0.391099 -0.211600
  0P   3py        0.116665  0.000000 -0.128069 -0.000000  0.044981  0.024413
  0P   4pz        0.000000 -0.143781  0.000000 -0.073367  0.000000  0.000000
  0P   4px        0.016082  0.000000  0.008403  0.000000 -0.276391  0.685719
  0P   4py        0.143076  0.000000  0.072293  0.000000  0.031976 -0.079074
  0P   1dz2       0.001064 -0.000000  0.000405  0.000000 -0.155971 -0.870016
  0P   1dxz       0.000000 -0.023000  0.000000 -0.438449 -0.000000 -0.000000
  0P   1dyz      -0.000000  0.002522 -0.000000  0.050409  0.000000  0.000000
  0P   1dx2y2     0.004559  0.000000  0.100049  0.000000  0.263230  1.467589
  0P   1dxy       0.024395  0.000000  0.429681  0.000000 -0.061083 -0.343059
  0P   2dz2       0.000208 -0.000000  0.000031  0.000000 -0.137657 -0.605139
  0P   2dxz      -0.000000  0.206723  0.000000 -0.186954 -0.000000 -0.000000
  0P   2dyz       0.000000 -0.023840 -0.000000  0.021607 -0.000000 -0.000000
  0P   2dx2y2    -0.047583 -0.000000  0.042828  0.000000  0.232155  1.020525
  0P   2dxy      -0.201815 -0.000000  0.184092  0.000000 -0.054146 -0.238538
  0P   1f0        0.000000 -0.206602 -0.000000  0.311590  0.000000 -0.000000
  0P   1f+1       0.010694  0.000000 -0.014131  0.000000 -0.321864 -0.613253
  0P   1f-1       0.083187  0.000000 -0.126792 -0.000000  0.036994  0.070705
  0P   1f+2      -0.000000  0.259686  0.000000 -0.391818 -0.000000 -0.000000
  0P   1f-2       0.000000 -0.061023 -0.000000  0.091356  0.000000 -0.000000
  0P   1f+3       0.109689  0.000000 -0.166505 -0.000000 -0.393938 -0.750367
  0P   1f-3       0.305673  0.000000 -0.465069 -0.000000  0.140916  0.269268
  1H   1s        -0.000788 -0.000000 -0.000168 -0.000000 -0.084669  0.874314
  1H   2s         0.004301 -0.000000  0.001475  0.000000 -0.972616 -5.564643
  1H   3s         0.000076 -0.000000 -0.000585 -0.000000  0.723881 -0.737158
  1H   1pz        0.000000 -1.032919  0.000000 -0.816066 -0.000000 -0.000000
  1H   1px        0.118554  0.000000  0.091784 -0.000000  1.370334 -0.105206
  1H   1py        1.029423  0.000000  0.806593  0.000000 -0.156939  0.012223
  1H   2pz       -0.000000  0.413740 -0.000000  1.096234  0.000000  0.000000
  1H   2px       -0.049865 -0.000000 -0.124990 -0.000000 -0.545323  3.505340
  1H   2py       -0.414829 -0.000000 -1.087085 -0.000000  0.061729 -0.404055
  1H   1dz2      -0.002925 -0.000000 -0.000740 -0.000000 -0.026193  0.742131
  1H   1dxz      -0.000000  0.647864  0.000000 -0.993135 -0.000000 -0.000000
  1H   1dyz       0.000000 -0.073434 -0.000000  0.115369  0.000000  0.000000
  1H   1dx2y2    -0.149064 -0.000000  0.227404  0.000000  0.043937 -1.253167
  1H   1dxy      -0.630520 -0.000000  0.976352  0.000000 -0.009534  0.292625
--------------
SCF ITERATIONS
--------------
               ***  Starting incremental Fock matrix formation  ***
===> SHARK/Fock/General/Sym: HFTyp=2 DoJ=1 DoX=1 facj= 2.000 facx=-1.000 NFock=1 NumOp=2 NMat=2 RangeSep=0 GeneralContraction=0 PGCOpt=1
    -> L=0 0 0 0:     0.005 sec done=     14667 (= 99.7%) skipped=        38 
    -> L=1 0 0 0:     0.044 sec done=     33542 (= 99.1%) skipped=       310 
    -> L=1 0 1 0:     0.022 sec done=     19211 (= 97.6%) skipped=       477 
    -> L=1 1 0 0:     0.034 sec done=     11255 (= 99.7%) skipped=        31 
    -> L=1 1 1 0:     0.052 sec done=     12963 (= 99.2%) skipped=       105 
    -> L=1 1 1 1:     0.014 sec done=      2207 (= 99.8%) skipped=         4 
    -> L=2 0 0 0:     0.006 sec done=      8499 (= 92.7%) skipped=       669 
    -> UHF LowL loop time =     0.178 sec
    -> L=2 0 1 0:     0.034 sec done=      9271 (= 88.2%) skipped=      1242 
    -> L=2 0 1 1:     0.015 sec done=      3304 (= 93.1%) skipped=       243 
    -> L=2 0 2 0:     0.011 sec done=      1118 (= 80.1%) skipped=       278 
    -> L=2 1 0 0:     0.014 sec done=      5604 (= 99.3%) skipped=        39 
    -> L=2 1 1 0:     0.038 sec done=      6394 (= 97.9%) skipped=       140 
    -> L=2 1 2 0:     0.017 sec done=      1548 (= 87.9%) skipped=       214 
    -> L=2 2 0 0:     0.006 sec done=      1026 (=100.0%) skipped=         0 
    -> L=3 0 0 0:     0.004 sec done=      2445 (= 86.5%) skipped=       382 
    -> L=3 2 0 0:     0.017 sec done=       513 (=100.0%) skipped=         0 
    -> L=3 2 1 0:     0.007 sec done=       594 (=100.0%) skipped=         0 
    -> L=3 2 1 1:     0.006 sec done=       198 (=100.0%) skipped=         0 
    -> L=3 2 2 0:     0.004 sec done=       149 (= 92.0%) skipped=        13 
    -> L=3 2 2 1:     0.005 sec done=        99 (=100.0%) skipped=         0 
    -> L=3 2 2 2:     0.004 sec done=        18 (=100.0%) skipped=         0 
    -> L=3 2 3 0:     0.003 sec done=        41 (= 80.4%) skipped=        10 
    -> L=3 2 3 1:     0.004 sec done=        33 (=100.0%) skipped=         0 
    -> L=3 2 3 2:     0.003 sec done=         6 (=100.0%) skipped=         0 
    -> L=3 3 0 0:     0.002 sec done=       171 (=100.0%) skipped=         0 
    -> L=3 3 1 1:     0.004 sec done=        66 (=100.0%) skipped=         0 
    -> L=3 3 2 0:     0.002 sec done=        49 (= 90.7%) skipped=         5 
    -> L=3 3 2 1:     0.002 sec done=        33 (=100.0%) skipped=         0 
    -> L=3 3 2 2:     0.001 sec done=         6 (=100.0%) skipped=         0 
    -> L=3 3 3 0:     0.001 sec done=        13 (= 76.5%) skipped=         4 
    -> L=3 3 3 1:     0.003 sec done=        11 (=100.0%) skipped=         0 
    -> L=3 3 3 2:     0.002 sec done=         3 (=100.0%) skipped=         0 
    -> L=3 3 3 3:     0.004 sec done=         1 (=100.0%) skipped=         0 
    ->Total SHARK integral loop time =    0.217 sec
    -> L=0 0 1 3:     0.005 sec done=      1826 (= 97.1%) skipped=        54 
    -> L=0 1 0 3:     0.007 sec done=      2590 (= 81.2%) skipped=       601 
    -> L=0 1 1 3:     0.020 sec done=      2043 (= 93.9%) skipped=       132 
    -> L=0 1 2 2:     0.006 sec done=      1188 (=100.0%) skipped=         0 
    -> L=0 1 3 3:     0.003 sec done=       198 (=100.0%) skipped=         0 
    -> L=0 2 0 3:     0.004 sec done=       618 (= 75.7%) skipped=       198 
    -> L=0 2 1 3:     0.003 sec done=       483 (= 83.6%) skipped=        95 
    -> L=0 2 2 2:     0.004 sec done=       300 (= 92.6%) skipped=        24 
    -> L=0 3 0 3:     0.001 sec done=        90 (= 72.0%) skipped=        35 
    -> L=0 3 1 1:     0.006 sec done=       939 (= 85.7%) skipped=       157 
    -> L=0 3 1 2:     0.005 sec done=       424 (= 78.8%) skipped=       114 
    -> L=0 3 1 3:     0.015 sec done=       129 (= 73.7%) skipped=        46 
    -> L=0 3 2 2:     0.002 sec done=        82 (= 80.4%) skipped=        20 
    -> L=1 1 1 2:     0.020 sec done=      2163 (= 99.3%) skipped=        15 
    -> L=1 1 1 3:     0.008 sec done=       711 (= 97.9%) skipped=        15 
    -> L=1 1 2 2:     0.022 sec done=       396 (=100.0%) skipped=         0 
    -> L=1 2 1 2:     0.010 sec done=       548 (= 97.7%) skipped=        13 
    -> L=1 2 1 3:     0.007 sec done=       344 (= 94.8%) skipped=        19 
    -> L=1 2 2 2:     0.007 sec done=       198 (=100.0%) skipped=         0 
    -> L=1 3 1 3:     0.004 sec done=        59 (= 89.4%) skipped=         7 
    -> L=1 3 2 2:     0.004 sec done=        66 (=100.0%) skipped=         0 
    -> L=2 2 2 2:     0.006 sec done=        21 (=100.0%) skipped=         0 
    ->Total LIBINT loop time =    0.174 sec

                         ----------------------------
                         !        ITERATION     0   !
                         ----------------------------
   Total Energy        :    -340.907126033156 Eh
   Energy Change       :    -340.907126033156 Eh
   MAX-DP              :       0.028084991617
   RMS-DP              :       0.001165085190
   Actual Damping      :       0.7000
   Actual Level Shift  :       0.2500 Eh

===> SHARK/Fock/General/Sym: HFTyp=2 DoJ=1 DoX=1 facj= 2.000 facx=-1.000 NFock=1 NumOp=2 NMat=2 RangeSep=0 GeneralContraction=0 PGCOpt=1
    -> L=0 0 0 0:     0.004 sec done=     14521 (= 98.7%) skipped=       184 
    -> L=1 0 0 0:     0.016 sec done=     32698 (= 96.6%) skipped=      1154 
    -> L=1 0 1 0:     0.054 sec done=     18416 (= 93.5%) skipped=      1272 
    -> L=1 1 0 0:     0.012 sec done=     11150 (= 98.8%) skipped=       136 
    -> L=1 1 1 0:     0.037 sec done=     12755 (= 97.6%) skipped=       313 
    -> L=1 1 1 1:     0.022 sec done=      2188 (= 99.0%) skipped=        23 
    -> L=2 0 0 0:     0.006 sec done=      8034 (= 87.6%) skipped=      1134 
    -> UHF LowL loop time =     0.152 sec
    -> L=2 0 1 0:     0.020 sec done=      8689 (= 82.7%) skipped=      1824 
    -> L=2 0 1 1:     0.024 sec done=      3136 (= 88.4%) skipped=       411 
    -> L=2 0 2 0:     0.004 sec done=      1036 (= 74.2%) skipped=       360 
    -> L=2 1 0 0:     0.018 sec done=      5540 (= 98.2%) skipped=       103 
    -> L=2 1 1 0:     0.037 sec done=      6234 (= 95.4%) skipped=       300 
    -> L=2 1 2 0:     0.021 sec done=      1479 (= 83.9%) skipped=       283 
    -> L=2 2 0 0:     0.005 sec done=      1026 (=100.0%) skipped=         0 
    -> L=3 0 0 0:     0.003 sec done=      2187 (= 77.4%) skipped=       640 
    -> L=3 2 0 0:     0.002 sec done=       513 (=100.0%) skipped=         0 
    -> L=3 2 1 0:     0.006 sec done=       593 (= 99.8%) skipped=         1 
    -> L=3 2 1 1:     0.005 sec done=       198 (=100.0%) skipped=         0 
    -> L=3 2 2 0:     0.003 sec done=       145 (= 89.5%) skipped=        17 
    -> L=3 2 2 1:     0.004 sec done=        99 (=100.0%) skipped=         0 
    -> L=3 2 2 2:     0.005 sec done=        18 (=100.0%) skipped=         0 
    -> L=3 2 3 0:     0.001 sec done=        38 (= 74.5%) skipped=        13 
    -> L=3 2 3 1:     0.003 sec done=        32 (= 97.0%) skipped=         1 
    -> L=3 2 3 2:     0.001 sec done=         6 (=100.0%) skipped=         0 
    -> L=3 3 0 0:     0.002 sec done=       171 (=100.0%) skipped=         0 
    -> L=3 3 1 1:     0.002 sec done=        66 (=100.0%) skipped=         0 
    -> L=3 3 2 0:     0.001 sec done=        49 (= 90.7%) skipped=         5 
    -> L=3 3 2 1:     0.001 sec done=        33 (=100.0%) skipped=         0 
    -> L=3 3 2 2:     0.001 sec done=         6 (=100.0%) skipped=         0 
    -> L=3 3 3 0:     0.001 sec done=        13 (= 76.5%) skipped=         4 
    -> L=3 3 3 1:     0.001 sec done=        11 (=100.0%) skipped=         0 
    -> L=3 3 3 2:     0.003 sec done=         3 (=100.0%) skipped=         0 
    -> L=3 3 3 3:     0.000 sec done=         1 (=100.0%) skipped=         0 
    ->Total SHARK integral loop time =    0.177 sec
    -> L=0 0 1 3:     0.007 sec done=      1773 (= 94.3%) skipped=       107 
    -> L=0 1 0 3:     0.006 sec done=      2342 (= 73.4%) skipped=       849 
    -> L=0 1 1 3:     0.012 sec done=      1971 (= 90.6%) skipped=       204 
    -> L=0 1 2 2:     0.007 sec done=      1182 (= 99.5%) skipped=         6 
    -> L=0 1 3 3:     0.003 sec done=       198 (=100.0%) skipped=         0 
    -> L=0 2 0 3:     0.002 sec done=       544 (= 66.7%) skipped=       272 
    -> L=0 2 1 3:     0.003 sec done=       459 (= 79.4%) skipped=       119 
    -> L=0 2 2 2:     0.004 sec done=       293 (= 90.4%) skipped=        31 
    -> L=0 3 0 3:     0.001 sec done=        79 (= 63.2%) skipped=        46 
    -> L=0 3 1 1:     0.005 sec done=       860 (= 78.5%) skipped=       236 
    -> L=0 3 1 2:     0.005 sec done=       396 (= 73.6%) skipped=       142 
    -> L=0 3 1 3:     0.002 sec done=       123 (= 70.3%) skipped=        52 
    -> L=0 3 2 2:     0.007 sec done=        80 (= 78.4%) skipped=        22 
    -> L=1 1 1 2:     0.018 sec done=      2148 (= 98.6%) skipped=        30 
    -> L=1 1 1 3:     0.008 sec done=       697 (= 96.0%) skipped=        29 
    -> L=1 1 2 2:     0.011 sec done=       396 (=100.0%) skipped=         0 
    -> L=1 2 1 2:     0.012 sec done=       541 (= 96.4%) skipped=        20 
    -> L=1 2 1 3:     0.016 sec done=       335 (= 92.3%) skipped=        28 
    -> L=1 2 2 2:     0.007 sec done=       198 (=100.0%) skipped=         0 
    -> L=1 3 1 3:     0.003 sec done=        56 (= 84.8%) skipped=        10 
    -> L=1 3 2 2:     0.003 sec done=        65 (= 98.5%) skipped=         1 
    -> L=2 2 2 2:     0.001 sec done=        21 (=100.0%) skipped=         0 
    ->Total LIBINT loop time =    0.143 sec

                         ----------------------------
                         !        ITERATION     1   !
                         ----------------------------
   Total Energy        :    -340.916555370646 Eh
   Energy Change       :      -0.009429337490 Eh
   MAX-DP              :       0.027988172796
   RMS-DP              :       0.001009644020
   Actual Damping      :       0.7000
   Actual Level Shift  :       0.2500 Eh

===> SHARK/Fock/General/Sym: HFTyp=2 DoJ=1 DoX=1 facj= 2.000 facx=-1.000 NFock=1 NumOp=2 NMat=2 RangeSep=0 GeneralContraction=0 PGCOpt=1
    -> L=0 0 0 0:     0.004 sec done=     14505 (= 98.6%) skipped=       200 
    -> L=1 0 0 0:     0.024 sec done=     32646 (= 96.4%) skipped=      1206 
    -> L=1 0 1 0:     0.032 sec done=     18372 (= 93.3%) skipped=      1316 
    -> L=1 1 0 0:     0.012 sec done=     11133 (= 98.6%) skipped=       153 
    -> L=1 1 1 0:     0.035 sec done=     12731 (= 97.4%) skipped=       337 
    -> L=1 1 1 1:     0.013 sec done=      2187 (= 98.9%) skipped=        24 
    -> L=2 0 0 0:     0.006 sec done=      8008 (= 87.3%) skipped=      1160 
    -> UHF LowL loop time =     0.126 sec
    -> L=2 0 1 0:     0.020 sec done=      8654 (= 82.3%) skipped=      1859 
    -> L=2 0 1 1:     0.025 sec done=      3124 (= 88.1%) skipped=       423 
    -> L=2 0 2 0:     0.005 sec done=      1031 (= 73.9%) skipped=       365 
    -> L=2 1 0 0:     0.011 sec done=      5536 (= 98.1%) skipped=       107 
    -> L=2 1 1 0:     0.035 sec done=      6222 (= 95.2%) skipped=       312 
    -> L=2 1 2 0:     0.015 sec done=      1474 (= 83.7%) skipped=       288 
    -> L=2 2 0 0:     0.010 sec done=      1026 (=100.0%) skipped=         0 
    -> L=3 0 0 0:     0.004 sec done=      2169 (= 76.7%) skipped=       658 
    -> L=3 2 0 0:     0.002 sec done=       513 (=100.0%) skipped=         0 
    -> L=3 2 1 0:     0.013 sec done=       592 (= 99.7%) skipped=         2 
    -> L=3 2 1 1:     0.004 sec done=       198 (=100.0%) skipped=         0 
    -> L=3 2 2 0:     0.003 sec done=       145 (= 89.5%) skipped=        17 
    -> L=3 2 2 1:     0.004 sec done=        99 (=100.0%) skipped=         0 
    -> L=3 2 2 2:     0.002 sec done=        18 (=100.0%) skipped=         0 
    -> L=3 2 3 0:     0.001 sec done=        38 (= 74.5%) skipped=        13 
    -> L=3 2 3 1:     0.003 sec done=        32 (= 97.0%) skipped=         1 
    -> L=3 2 3 2:     0.001 sec done=         6 (=100.0%) skipped=         0 
    -> L=3 3 0 0:     0.001 sec done=       171 (=100.0%) skipped=         0 
    -> L=3 3 1 1:     0.003 sec done=        66 (=100.0%) skipped=         0 
    -> L=3 3 2 0:     0.002 sec done=        49 (= 90.7%) skipped=         5 
    -> L=3 3 2 1:     0.002 sec done=        33 (=100.0%) skipped=         0 
    -> L=3 3 2 2:     0.001 sec done=         6 (=100.0%) skipped=         0 
    -> L=3 3 3 0:     0.001 sec done=        13 (= 76.5%) skipped=         4 
    -> L=3 3 3 1:     0.002 sec done=        11 (=100.0%) skipped=         0 
    -> L=3 3 3 2:     0.001 sec done=         3 (=100.0%) skipped=         0 
    -> L=3 3 3 3:     0.000 sec done=         1 (=100.0%) skipped=         0 
    ->Total SHARK integral loop time =    0.173 sec
    -> L=0 0 1 3:     0.004 sec done=      1764 (= 93.8%) skipped=       116 
    -> L=0 1 0 3:     0.011 sec done=      2328 (= 73.0%) skipped=       863 
    -> L=0 1 1 3:     0.009 sec done=      1967 (= 90.4%) skipped=       208 
    -> L=0 1 2 2:     0.008 sec done=      1182 (= 99.5%) skipped=         6 
    -> L=0 1 3 3:     0.012 sec done=       198 (=100.0%) skipped=         0 
    -> L=0 2 0 3:     0.002 sec done=       538 (= 65.9%) skipped=       278 
    -> L=0 2 1 3:     0.006 sec done=       458 (= 79.2%) skipped=       120 
    -> L=0 2 2 2:     0.004 sec done=       293 (= 90.4%) skipped=        31 
    -> L=0 3 0 3:     0.001 sec done=        76 (= 60.8%) skipped=        49 
    -> L=0 3 1 1:     0.005 sec done=       858 (= 78.3%) skipped=       238 
    -> L=0 3 1 2:     0.004 sec done=       393 (= 73.0%) skipped=       145 
    -> L=0 3 1 3:     0.004 sec done=       122 (= 69.7%) skipped=        53 
    -> L=0 3 2 2:     0.001 sec done=        80 (= 78.4%) skipped=        22 
    -> L=1 1 1 2:     0.024 sec done=      2148 (= 98.6%) skipped=        30 
    -> L=1 1 1 3:     0.012 sec done=       697 (= 96.0%) skipped=        29 
    -> L=1 1 2 2:     0.006 sec done=       396 (=100.0%) skipped=         0 
    -> L=1 2 1 2:     0.021 sec done=       540 (= 96.3%) skipped=        21 
    -> L=1 2 1 3:     0.006 sec done=       334 (= 92.0%) skipped=        29 
    -> L=1 2 2 2:     0.007 sec done=       198 (=100.0%) skipped=         0 
    -> L=1 3 1 3:     0.002 sec done=        56 (= 84.8%) skipped=        10 
    -> L=1 3 2 2:     0.003 sec done=        65 (= 98.5%) skipped=         1 
    -> L=2 2 2 2:     0.001 sec done=        21 (=100.0%) skipped=         0 
    ->Total LIBINT loop time =    0.154 sec
                               ***Turning on DIIS***

                         ----------------------------
                         !        ITERATION     2   !
                         ----------------------------
   Total Energy        :    -340.923596671313 Eh
   Energy Change       :      -0.007041300667 Eh
   MAX-DP              :       0.077323685294
   RMS-DP              :       0.002590389056
   Actual Damping      :       0.0000
   Actual Level Shift  :       0.2500 Eh
   DIIS-Error          :       0.059176914068

===> SHARK/Fock/General/Sym: HFTyp=2 DoJ=1 DoX=1 facj= 2.000 facx=-1.000 NFock=1 NumOp=2 NMat=2 RangeSep=0 GeneralContraction=0 PGCOpt=1
    -> L=0 0 0 0:     0.005 sec done=     14577 (= 99.1%) skipped=       128 
    -> L=1 0 0 0:     0.017 sec done=     32982 (= 97.4%) skipped=       870 
    -> L=1 0 1 0:     0.034 sec done=     18685 (= 94.9%) skipped=      1003 
    -> L=1 1 0 0:     0.012 sec done=     11188 (= 99.1%) skipped=        98 
    -> L=1 1 1 0:     0.037 sec done=     12810 (= 98.0%) skipped=       258 
    -> L=1 1 1 1:     0.015 sec done=      2193 (= 99.2%) skipped=        18 
    -> L=2 0 0 0:     0.011 sec done=      8225 (= 89.7%) skipped=       943 
    -> UHF LowL loop time =     0.131 sec
    -> L=2 0 1 0:     0.021 sec done=      8942 (= 85.1%) skipped=      1571 
    -> L=2 0 1 1:     0.017 sec done=      3200 (= 90.2%) skipped=       347 
    -> L=2 0 2 0:     0.005 sec done=      1079 (= 77.3%) skipped=       317 
    -> L=2 1 0 0:     0.012 sec done=      5565 (= 98.6%) skipped=        78 
    -> L=2 1 1 0:     0.028 sec done=      6305 (= 96.5%) skipped=       229 
    -> L=2 1 2 0:     0.012 sec done=      1524 (= 86.5%) skipped=       238 
    -> L=2 2 0 0:     0.007 sec done=      1026 (=100.0%) skipped=         0 
    -> L=3 0 0 0:     0.003 sec done=      2237 (= 79.1%) skipped=       590 
    -> L=3 2 0 0:     0.002 sec done=       513 (=100.0%) skipped=         0 
    -> L=3 2 1 0:     0.006 sec done=       593 (= 99.8%) skipped=         1 
    -> L=3 2 1 1:     0.005 sec done=       198 (=100.0%) skipped=         0 
    -> L=3 2 2 0:     0.003 sec done=       148 (= 91.4%) skipped=        14 
    -> L=3 2 2 1:     0.004 sec done=        99 (=100.0%) skipped=         0 
    -> L=3 2 2 2:     0.002 sec done=        18 (=100.0%) skipped=         0 
    -> L=3 2 3 0:     0.002 sec done=        40 (= 78.4%) skipped=        11 
    -> L=3 2 3 1:     0.002 sec done=        33 (=100.0%) skipped=         0 
    -> L=3 2 3 2:     0.003 sec done=         6 (=100.0%) skipped=         0 
    -> L=3 3 0 0:     0.002 sec done=       171 (=100.0%) skipped=         0 
    -> L=3 3 1 1:     0.002 sec done=        66 (=100.0%) skipped=         0 
    -> L=3 3 2 0:     0.001 sec done=        49 (= 90.7%) skipped=         5 
    -> L=3 3 2 1:     0.002 sec done=        33 (=100.0%) skipped=         0 
    -> L=3 3 2 2:     0.001 sec done=         6 (=100.0%) skipped=         0 
    -> L=3 3 3 0:     0.001 sec done=        14 (= 82.4%) skipped=         3 
    -> L=3 3 3 1:     0.001 sec done=        11 (=100.0%) skipped=         0 
    -> L=3 3 3 2:     0.001 sec done=         3 (=100.0%) skipped=         0 
    -> L=3 3 3 3:     0.000 sec done=         1 (=100.0%) skipped=         0 
    ->Total SHARK integral loop time =    0.146 sec
    -> L=0 0 1 3:     0.007 sec done=      1796 (= 95.5%) skipped=        84 
    -> L=0 1 0 3:     0.005 sec done=      2420 (= 75.8%) skipped=       771 
    -> L=0 1 1 3:     0.007 sec done=      2007 (= 92.3%) skipped=       168 
[...]
Auxiliary Coulomb fitting basis             ... NOT available
Auxiliary J/K fitting basis                 ... NOT available
Auxiliary Correlation fitting basis         ... NOT available
Auxiliary 'external' fitting basis          ... NOT available
Integral threshold                          ...     2.500000e-11
Primitive cut-off                           ...     2.500000e-12
Primitive pair pre-selection threshold      ...     2.500000e-12

	<< Calculating on displaced geometry   7 (of  12) >>
SHARK General Contraction Test:  (Partially) Generally contracted basis detected
   -> Decontract basis set ...  ok (NBasis(old)=48 Nbasis(new)=73 NShells(old)=18 NShells(new)=33
   -> Initialize Partial General Contraction ...  ok
   -> Checking for pre-screening matrix
   -> Pre-screening matrix found on disk - Trying to read with NShells=33
   -> Passing Pre-screening matrix on to SHARK ...ok
   -> Leaving CheckPreScreeningMatrix
   -> Pre-screening check done
   -> done initializing partial contraction
SHARK Warning: The basis set dimension has changed.
   -> Pre-screening successfully read from disk
   -> Pre-screening set to shark
   -> Redoing Shell Pair Data ... ok
----------------------
SHARK INTEGRAL PACKAGE
----------------------

Number of atoms                             ...      2
Number of basis functions                   ...     73
Number of shells                            ...     33
Maximum angular momentum                    ...      3
Integral batch strategy                     ... SHARK/LIBINT Hybrid
RI-J (if used) integral strategy            ... SPLIT-RIJ (Revised 2003 algorithm where possible)
Printlevel                                  ...      2
Contraction scheme used                     ... PARTIAL GENERAL contraction
Coulomb Range Separation                    ... NOT USED
Exchange Range Separation                   ... NOT USED
Finite Nucleus Model                        ... NOT USED
Auxiliary Coulomb fitting basis             ... NOT available
Auxiliary J/K fitting basis                 ... NOT available
Auxiliary Correlation fitting basis         ... NOT available
Auxiliary 'external' fitting basis          ... NOT available
Integral threshold                          ...     2.500000e-11
Primitive cut-off                           ...     2.500000e-12
Primitive pair pre-selection threshold      ...     2.500000e-12

	<< Calculating on displaced geometry   8 (of  12) >>
SHARK General Contraction Test:  (Partially) Generally contracted basis detected
   -> Decontract basis set ...  ok (NBasis(old)=48 Nbasis(new)=73 NShells(old)=18 NShells(new)=33
   -> Initialize Partial General Contraction ...  ok
   -> Checking for pre-screening matrix
   -> Pre-screening matrix found on disk - Trying to read with NShells=33
   -> Passing Pre-screening matrix on to SHARK ...ok
   -> Leaving CheckPreScreeningMatrix
   -> Pre-screening check done
   -> done initializing partial contraction
SHARK Warning: The basis set dimension has changed.
   -> Pre-screening successfully read from disk
   -> Pre-screening set to shark
   -> Redoing Shell Pair Data ... ok
----------------------
SHARK INTEGRAL PACKAGE
----------------------

Number of atoms                             ...      2
Number of basis functions                   ...     73
Number of shells                            ...     33
Maximum angular momentum                    ...      3
Integral batch strategy                     ... SHARK/LIBINT Hybrid
RI-J (if used) integral strategy            ... SPLIT-RIJ (Revised 2003 algorithm where possible)
Printlevel                                  ...      2
Contraction scheme used                     ... PARTIAL GENERAL contraction
Coulomb Range Separation                    ... NOT USED
Exchange Range Separation                   ... NOT USED
Finite Nucleus Model                        ... NOT USED
Auxiliary Coulomb fitting basis             ... NOT available
Auxiliary J/K fitting basis                 ... NOT available
Auxiliary Correlation fitting basis         ... NOT available
Auxiliary 'external' fitting basis          ... NOT available
Integral threshold                          ...     2.500000e-11
Primitive cut-off                           ...     2.500000e-12
Primitive pair pre-selection threshold      ...     2.500000e-12

	<< Calculating on displaced geometry   9 (of  12) >>
SHARK General Contraction Test:  (Partially) Generally contracted basis detected
   -> Decontract basis set ...  ok (NBasis(old)=48 Nbasis(new)=73 NShells(old)=18 NShells(new)=33
   -> Initialize Partial General Contraction ...  ok
   -> Checking for pre-screening matrix
   -> Pre-screening matrix found on disk - Trying to read with NShells=33
   -> Passing Pre-screening matrix on to SHARK ...ok
   -> Leaving CheckPreScreeningMatrix
   -> Pre-screening check done
   -> done initializing partial contraction
SHARK Warning: The basis set dimension has changed.
   -> Pre-screening successfully read from disk
   -> Pre-screening set to shark
   -> Redoing Shell Pair Data ... ok
----------------------
SHARK INTEGRAL PACKAGE
----------------------

Number of atoms                             ...      2
Number of basis functions                   ...     73
Number of shells                            ...     33
Maximum angular momentum                    ...      3
Integral batch strategy                     ... SHARK/LIBINT Hybrid
RI-J (if used) integral strategy            ... SPLIT-RIJ (Revised 2003 algorithm where possible)
Printlevel                                  ...      2
Contraction scheme used                     ... PARTIAL GENERAL contraction
Coulomb Range Separation                    ... NOT USED
Exchange Range Separation                   ... NOT USED
Finite Nucleus Model                        ... NOT USED
Auxiliary Coulomb fitting basis             ... NOT available
Auxiliary J/K fitting basis                 ... NOT available
Auxiliary Correlation fitting basis         ... NOT available
Auxiliary 'external' fitting basis          ... NOT available
Integral threshold                          ...     2.500000e-11
Primitive cut-off                           ...     2.500000e-12
Primitive pair pre-selection threshold      ...     2.500000e-12

	<< Calculating on displaced geometry  10 (of  12) >>
SHARK General Contraction Test:  (Partially) Generally contracted basis detected
   -> Decontract basis set ...  ok (NBasis(old)=48 Nbasis(new)=73 NShells(old)=18 NShells(new)=33
   -> Initialize Partial General Contraction ...  ok
   -> Checking for pre-screening matrix
   -> Pre-screening matrix found on disk - Trying to read with NShells=33
   -> Passing Pre-screening matrix on to SHARK ...ok
   -> Leaving CheckPreScreeningMatrix
   -> Pre-screening check done
   -> done initializing partial contraction
SHARK Warning: The basis set dimension has changed.
   -> Pre-screening successfully read from disk
   -> Pre-screening set to shark
   -> Redoing Shell Pair Data ... ok
----------------------
SHARK INTEGRAL PACKAGE
----------------------

Number of atoms                             ...      2
Number of basis functions                   ...     73
Number of shells                            ...     33
Maximum angular momentum                    ...      3
Integral batch strategy                     ... SHARK/LIBINT Hybrid
RI-J (if used) integral strategy            ... SPLIT-RIJ (Revised 2003 algorithm where possible)
Printlevel                                  ...      2
Contraction scheme used                     ... PARTIAL GENERAL contraction
Coulomb Range Separation                    ... NOT USED
Exchange Range Separation                   ... NOT USED
Finite Nucleus Model                        ... NOT USED
Auxiliary Coulomb fitting basis             ... NOT available
Auxiliary J/K fitting basis                 ... NOT available
Auxiliary Correlation fitting basis         ... NOT available
Auxiliary 'external' fitting basis          ... NOT available
Integral threshold                          ...     2.500000e-11
Primitive cut-off                           ...     2.500000e-12
Primitive pair pre-selection threshold      ...     2.500000e-12

	<< Calculating on displaced geometry  11 (of  12) >>
SHARK General Contraction Test:  (Partially) Generally contracted basis detected
   -> Decontract basis set ...  ok (NBasis(old)=48 Nbasis(new)=73 NShells(old)=18 NShells(new)=33
   -> Initialize Partial General Contraction ...  ok
   -> Checking for pre-screening matrix
   -> Pre-screening matrix found on disk - Trying to read with NShells=33
   -> Passing Pre-screening matrix on to SHARK ...ok
   -> Leaving CheckPreScreeningMatrix
   -> Pre-screening check done
   -> done initializing partial contraction
SHARK Warning: The basis set dimension has changed.
   -> Pre-screening successfully read from disk
   -> Pre-screening set to shark
   -> Redoing Shell Pair Data ... ok
----------------------
SHARK INTEGRAL PACKAGE
----------------------

Number of atoms                             ...      2
Number of basis functions                   ...     73
Number of shells                            ...     33
Maximum angular momentum                    ...      3
Integral batch strategy                     ... SHARK/LIBINT Hybrid
RI-J (if used) integral strategy            ... SPLIT-RIJ (Revised 2003 algorithm where possible)
Printlevel                                  ...      2
Contraction scheme used                     ... PARTIAL GENERAL contraction
Coulomb Range Separation                    ... NOT USED
Exchange Range Separation                   ... NOT USED
Finite Nucleus Model                        ... NOT USED
Auxiliary Coulomb fitting basis             ... NOT available
Auxiliary J/K fitting basis                 ... NOT available
Auxiliary Correlation fitting basis         ... NOT available
Auxiliary 'external' fitting basis          ... NOT available
Integral threshold                          ...     2.500000e-11
Primitive cut-off                           ...     2.500000e-12
Primitive pair pre-selection threshold      ...     2.500000e-12

	<< Calculating on displaced geometry  12 (of  12) >>
SHARK General Contraction Test:  (Partially) Generally contracted basis detected
   -> Decontract basis set ...  ok (NBasis(old)=48 Nbasis(new)=73 NShells(old)=18 NShells(new)=33
   -> Initialize Partial General Contraction ...  ok
   -> Checking for pre-screening matrix
   -> Pre-screening matrix found on disk - Trying to read with NShells=33
   -> Passing Pre-screening matrix on to SHARK ...ok
   -> Leaving CheckPreScreeningMatrix
   -> Pre-screening check done
   -> done initializing partial contraction
SHARK Warning: The basis set dimension has changed.
   -> Pre-screening successfully read from disk
   -> Pre-screening set to shark
   -> Redoing Shell Pair Data ... ok
----------------------
SHARK INTEGRAL PACKAGE
----------------------

Number of atoms                             ...      2
Number of basis functions                   ...     73
Number of shells                            ...     33
Maximum angular momentum                    ...      3
Integral batch strategy                     ... SHARK/LIBINT Hybrid
RI-J (if used) integral strategy            ... SPLIT-RIJ (Revised 2003 algorithm where possible)
Printlevel                                  ...      2
Contraction scheme used                     ... PARTIAL GENERAL contraction
Coulomb Range Separation                    ... NOT USED
Exchange Range Separation                   ... NOT USED
Finite Nucleus Model                        ... NOT USED
Auxiliary Coulomb fitting basis             ... NOT available
Auxiliary J/K fitting basis                 ... NOT available
Auxiliary Correlation fitting basis         ... NOT available
Auxiliary 'external' fitting basis          ... NOT available
Integral threshold                          ...     2.500000e-11
Primitive cut-off                           ...     2.500000e-12
Primitive pair pre-selection threshold      ...     2.500000e-12


-----------------------
VIBRATIONAL FREQUENCIES
-----------------------

Scaling factor for frequencies =  1.000000000 (already applied!)

   0:         0.00 cm**-1
   1:         0.00 cm**-1
   2:         0.00 cm**-1
   3:         0.00 cm**-1
   4:         0.00 cm**-1
   5:      2473.61 cm**-1


------------
NORMAL MODES
------------

These modes are the cartesian displacements weighted by the diagonal matrix
M(i,i)=1/sqrt(m[i]) where m[i] is the mass of the displaced atom
Thus, these vectors are normalized but *not* orthogonal

                  0          1          2          3          4          5    
      0       0.000000   0.000000   0.000000   0.000000   0.000000   0.032312
      1       0.000000   0.000000   0.000000   0.000000   0.000000  -0.003725
      2       0.000000   0.000000   0.000000   0.000000   0.000000   0.000000
      3       0.000000   0.000000   0.000000   0.000000   0.000000  -0.992893
      4       0.000000   0.000000   0.000000   0.000000   0.000000   0.114476
      5       0.000000   0.000000   0.000000   0.000000   0.000000   0.000000


-----------
IR SPECTRUM
-----------

 Mode   freq       eps      Int      T**2         TX        TY        TZ
       cm**-1   L/(mol*cm) km/mol    a.u.
----------------------------------------------------------------------------
  5:   2473.61   0.000215    1.08  0.000027  (-0.005166 -0.000616  0.000000)

* The epsilon (eps) is given for a Dirac delta lineshape.
** The dipole moment derivative (T) already includes vibrational overlap.

The first frequency considered to be a vibration is 5
The total number of vibrations considered is 1


--------------------------
THERMOCHEMISTRY AT 298.15K
--------------------------

Temperature         ... 298.15 K
Pressure            ... 1.00 atm
Total Mass          ... 31.98 AMU
The molecule is recognized as being linear

Throughout the following assumptions are being made:
  (1) The electronic state is orbitally nondegenerate
      but the spin degeneracy is treated
  (2) There are no thermally accessible electronically excited states
  (3) Hindered rotations indicated by low frequency modes are not
      treated as such but are treated as vibrations and this may
      cause some error
  (4) All equations used are the standard statistical mechanics
      equations for an ideal gas
  (5) All vibrations are strictly harmonic

freq.    2473.61  E(vib)   ...       0.00 

------------
INNER ENERGY
------------

The inner energy is: U= E(el) + E(ZPE) + E(vib) + E(rot) + E(trans)
    E(el)   - is the total energy from the electronic structure calculation
              = E(kin-el) + E(nuc-el) + E(el-el) + E(nuc-nuc)
    E(ZPE)  - the the zero temperature vibrational energy from the frequency calculation
    E(vib)  - the the finite temperature correction to E(ZPE) due to population
              of excited vibrational states
    E(rot)  - is the rotational thermal energy
    E(trans)- is the translational thermal energy

Summary of contributions to the inner energy U:
Electronic energy                ...   -341.03214039 Eh
Zero point energy                ...      0.00563530 Eh       3.54 kcal/mol
Thermal vibrational correction   ...      0.00000007 Eh       0.00 kcal/mol
Thermal rotational correction    ...      0.00094418 Eh       0.59 kcal/mol
Thermal translational correction ...      0.00141627 Eh       0.89 kcal/mol
-----------------------------------------------------------------------
Total thermal energy                   -341.02414456 Eh


Summary of corrections to the electronic energy:
(perhaps to be used in another calculation)
Total thermal correction                  0.00236053 Eh       1.48 kcal/mol
Non-thermal (ZPE) correction              0.00563530 Eh       3.54 kcal/mol
-----------------------------------------------------------------------
Total correction                          0.00799583 Eh       5.02 kcal/mol


--------
ENTHALPY
--------

The enthalpy is H = U + kB*T
                kB is Boltzmann's constant
Total free energy                 ...   -341.02414456 Eh 
Thermal Enthalpy correction       ...      0.00094421 Eh       0.59 kcal/mol
-----------------------------------------------------------------------
Total Enthalpy                    ...   -341.02320036 Eh

The point group will now be determined using a tolerance of 1.0000e-04.

WARNING (ORCA_SYM): The standard basis set is uninitialized at this point.
The point group is determined without considering basis set information.

Splitting atom subsets according to nuclear charge, mass and basis set.
Splitting atom subsets according to distance from the molecule's center.
Identifying relative distance patterns of the atoms.
Splitting atom subsets according to atoms' relative distance patterns.
Bring atoms of each subset into input order.
The molecule is linear.
There is at least one atom subset not centered around the molecule's center.
The molecule does not have a center of inversion.
No further test is needed for point group Cinfv.
This point group has been found:    Cinfv
Largest non-degenerate subgroup:    C2v


Mass-centered symmetry-perfected Cartesians (point groups Cinfv and C2v):

Atom          Symmetry-perfected Cartesians (x, y, z; au)
  0       0.000000000000    0.000000000000   -0.084485612376
  1       0.000000000000    0.000000000000    2.596088648544


Note: Rotational entropy computed according to Herzberg 
Infrared and Raman Spectra, Chapter V,1, Van Nostrand Reinhold, 1945 
Point Group:  Cinfv, Symmetry Number:   1  
Rotational constants in cm-1:     0.000000     8.581965     8.581965 

Vibrational entropy computed according to the QRRHO of S. Grimme
Chem.Eur.J. 2012 18 9955


-------
ENTROPY
-------

The entropy contributions are T*S = T*(S(el)+S(vib)+S(rot)+S(trans))
     S(el)   - electronic entropy
     S(vib)  - vibrational entropy
     S(rot)  - rotational entropy
     S(trans)- translational entropy
The entropies will be listed as multiplied by the temperature to get
units of energy

Electronic entropy                ...      0.00065446 Eh      0.41 kcal/mol
Vibrational entropy               ...      0.00000008 Eh      0.00 kcal/mol
Rotational entropy                ...      0.00395059 Eh      2.48 kcal/mol
Translational entropy             ...      0.01725670 Eh     10.83 kcal/mol
-----------------------------------------------------------------------
Final entropy term                ...      0.02186182 Eh     13.72 kcal/mol


-------------------
GIBBS FREE ENERGY
-------------------

The Gibbs free energy is G = H - T*S

Total enthalpy                    ...   -341.02320036 Eh 
Total entropy correction          ...     -0.02186182 Eh    -13.72 kcal/mol
-----------------------------------------------------------------------
Final Gibbs free energy         ...   -341.04506218 Eh

For completeness - the Gibbs free energy minus the electronic energy
G-E(el)                           ...     -0.01292179 Eh     -8.11 kcal/mol



Timings for individual modules:

Sum of individual times         ...      561.192 sec (=   9.353 min)
GTO integral calculation        ...       24.753 sec (=   0.413 min)   4.4 %
SCF iterations                  ...       10.819 sec (=   0.180 min)   1.9 %
MP2 module                      ...       39.811 sec (=   0.664 min)   7.1 %
Numerical frequency calculation ...      485.809 sec (=   8.097 min)  86.6 %
                             ****ORCA TERMINATED NORMALLY****
TOTAL RUN TIME: 0 days 0 hours 9 minutes 5 seconds 57 msec
