
                                 *****************
                                 * O   R   C   A *
                                 *****************

                                            #,                                       
                                            ###                                      
                                            ####                                     
                                            #####                                    
                                            ######                                   
                                           ########,                                 
                                     ,,################,,,,,                         
                               ,,#################################,,                 
                          ,,##########################################,,             
                       ,#########################################, ''#####,          
                    ,#############################################,,   '####,        
                  ,##################################################,,,,####,       
                ,###########''''           ''''###############################       
              ,#####''   ,,,,##########,,,,          '''####'''          '####       
            ,##' ,,,,###########################,,,                        '##       
           ' ,,###''''                  '''############,,,                           
         ,,##''                                '''############,,,,        ,,,,,,###''
      ,#''                                            '''#######################'''  
     '                                                          ''''####''''         
             ,#######,   #######,   ,#######,      ##                                
            ,#'     '#,  ##    ##  ,#'     '#,    #''#        ######   ,####,        
            ##       ##  ##   ,#'  ##            #'  '#       #        #'  '#        
            ##       ##  #######   ##           ,######,      #####,   #    #        
            '#,     ,#'  ##    ##  '#,     ,#' ,#      #,         ##   #,  ,#        
             '#######'   ##     ##  '#######'  #'      '#     #####' # '####'        



                  #######################################################
                  #                        -***-                        #
                  #          Department of theory and spectroscopy      #
                  #    Directorship and core code : Frank Neese         #
                  #        Max Planck Institute fuer Kohlenforschung    #
                  #                Kaiser Wilhelm Platz 1               #
                  #                 D-45470 Muelheim/Ruhr               #
                  #                      Germany                        #
                  #                                                     #
                  #                  All rights reserved                #
                  #                        -***-                        #
                  #######################################################


                         Program Version 5.0.2 -  RELEASE  -


 With contributions from (in alphabetic order):
   Daniel Aravena         : Magnetic Suceptibility
   Michael Atanasov       : Ab Initio Ligand Field Theory (pilot matlab implementation)
   Alexander A. Auer      : GIAO ZORA, VPT2 properties, NMR spectrum
   Ute Becker             : Parallelization
   Giovanni Bistoni       : ED, misc. LED, open-shell LED, HFLD
   Martin Brehm           : Molecular dynamics
   Dmytro Bykov           : SCF Hessian
   Vijay G. Chilkuri      : MRCI spin determinant printing, contributions to CSF-ICE
   Dipayan Datta          : RHF DLPNO-CCSD density
   Achintya Kumar Dutta   : EOM-CC, STEOM-CC
   Dmitry Ganyushin       : Spin-Orbit,Spin-Spin,Magnetic field MRCI
   Miquel Garcia          : C-PCM and meta-GGA Hessian, CC/C-PCM, Gaussian charge scheme
   Yang Guo               : DLPNO-NEVPT2, F12-NEVPT2, CIM, IAO-localization
   Andreas Hansen         : Spin unrestricted coupled pair/coupled cluster methods
   Benjamin Helmich-Paris : MC-RPA, TRAH-SCF, COSX integrals
   Lee Huntington         : MR-EOM, pCC
   Robert Izsak           : Overlap fitted RIJCOSX, COSX-SCS-MP3, EOM
   Marcus Kettner         : VPT2
   Christian Kollmar      : KDIIS, OOCD, Brueckner-CCSD(T), CCSD density, CASPT2, CASPT2-K
   Simone Kossmann        : Meta GGA functionals, TD-DFT gradient, OOMP2, MP2 Hessian
   Martin Krupicka        : Initial AUTO-CI
   Lucas Lang             : DCDCAS
   Marvin Lechner         : AUTO-CI (C++ implementation), FIC-MRCC
   Dagmar Lenk            : GEPOL surface, SMD
   Dimitrios Liakos       : Extrapolation schemes; Compound Job, initial MDCI parallelization
   Dimitrios Manganas     : Further ROCIS development; embedding schemes
   Dimitrios Pantazis     : SARC Basis sets
   Anastasios Papadopoulos: AUTO-CI, single reference methods and gradients
   Taras Petrenko         : DFT Hessian,TD-DFT gradient, ASA, ECA, R-Raman, ABS, FL, XAS/XES, NRVS
   Peter Pinski           : DLPNO-MP2, DLPNO-MP2 Gradient
   Christoph Reimann      : Effective Core Potentials
   Marius Retegan         : Local ZFS, SOC
   Christoph Riplinger    : Optimizer, TS searches, QM/MM, DLPNO-CCSD(T), (RO)-DLPNO pert. Triples
   Tobias Risthaus        : Range-separated hybrids, TD-DFT gradient, RPA, STAB
   Michael Roemelt        : Original ROCIS implementation
   Masaaki Saitow         : Open-shell DLPNO-CCSD energy and density
   Barbara Sandhoefer     : DKH picture change effects
   Avijit Sen             : IP-ROCIS
   Kantharuban Sivalingam : CASSCF convergence, NEVPT2, FIC-MRCI
   Bernardo de Souza      : ESD, SOC TD-DFT
   Georgi Stoychev        : AutoAux, RI-MP2 NMR, DLPNO-MP2 response
   Willem Van den Heuvel  : Paramagnetic NMR
   Boris Wezisla          : Elementary symmetry handling
   Frank Wennmohs         : Technical directorship


 We gratefully acknowledge several colleagues who have allowed us to
 interface, adapt or use parts of their codes:
   Stefan Grimme, W. Hujo, H. Kruse, P. Pracht,  : VdW corrections, initial TS optimization,
                  C. Bannwarth, S. Ehlert          DFT functionals, gCP, sTDA/sTD-DF
   Ed Valeev, F. Pavosevic, A. Kumar             : LibInt (2-el integral package), F12 methods
   Garnet Chan, S. Sharma, J. Yang, R. Olivares  : DMRG
   Ulf Ekstrom                                   : XCFun DFT Library
   Mihaly Kallay                                 : mrcc  (arbitrary order and MRCC methods)
   Jiri Pittner, Ondrej Demel                    : Mk-CCSD
   Frank Weinhold                                : gennbo (NPA and NBO analysis)
   Christopher J. Cramer and Donald G. Truhlar   : smd solvation model
   Lars Goerigk                                  : TD-DFT with DH, B97 family of functionals
   V. Asgeirsson, H. Jonsson                     : NEB implementation
   FAccTs GmbH                                   : IRC, NEB, NEB-TS, DLPNO-Multilevel, CI-OPT
                                                   MM, QMMM, 2- and 3-layer-ONIOM, Crystal-QMMM,
                                                   LR-CPCM, SF, NACMEs, symmetry and pop. for TD-DFT,
                                                   nearIR, NL-DFT gradient (VV10), updates on ESD,
                                                   ML-optimized integration grids
   S Lehtola, MJT Oliveira, MAL Marques          : LibXC Library
   Liviu Ungur et al                             : ANISO software


 Your calculation uses the libint2 library for the computation of 2-el integrals
 For citations please refer to: http://libint.valeyev.net

 Your ORCA version has been built with support for libXC version: 5.1.0
 For citations please refer to: https://tddft.org/programs/libxc/

 This ORCA versions uses:
   CBLAS   interface :  Fast vector & matrix operations
   LAPACKE interface :  Fast linear algebra routines
   Shared memory     :  Shared parallel matrices


================================================================================

----- Orbital basis set information -----
Your calculation utilizes the basis: cc-pVTZ 
       H, B-Ne : Obtained from the ccRepo (grant-hill.group.shef.ac.uk/ccrepo) Feb. 2017
                 T. H. Dunning, Jr., J. Chem. Phys. 90, 1007 (1989)
            He : Obtained from the ccRepo (grant-hill.group.shef.ac.uk/ccrepo) Feb. 2017
                 D. E. Woon, T. H. Dunning, Jr., J. Chem. Phys. 100, 2975 (1994)
  Li-Be, Na-Mg : Obtained from the ccRepo (grant-hill.group.shef.ac.uk/ccrepo) Feb. 2017
                 B. P. Prascher, D. E. Woon, K. A. Peterson, T. H. Dunning, Jr., A. K. Wilson, Theor. Chem. Acc. 128, 69 (2011)
         Al-Ar : Obtained from the ccRepo (grant-hill.group.shef.ac.uk/ccrepo) Feb. 2017
                 D. E. Woon, T. H. Dunning, Jr., J. Chem. Phys. 98, 1358 (1993)
            Ca : Obtained from the Peterson Research Group Website (tyr0.chem.wsu.edu/~kipeters) Feb. 2017
                 J. Koput, K. A. Peterson, J. Phys. Chem. 106, 9595 (2002)
         Sc-Zn : Obtained from the ccRepo (grant-hill.group.shef.ac.uk/ccrepo) Feb. 2017
                 N. B. Balabanov, K. A. Peterson, J. Chem. Phys. 123, 064107 (2005)
                 N. B. Balabanov, K. A. Peterson, J. Chem. Phys. 125, 074110 (2006)
         Ga-Kr : Obtained from the ccRepo (grant-hill.group.shef.ac.uk/ccrepo) Feb. 2017
                 A. K. Wilson, D. E. Woon, K. A. Peterson, T. H. Dunning, Jr., J. Chem. Phys. 110, 7667 (1999)
             Y : Obtained from the ccRepo (grant-hill.group.shef.ac.uk/ccrepo) Feb. 2017
                 K. A. Peterson, D. Figgen, M. Dolg, H. Stoll, J. Chem. Phys. 126, 124101 (2007)
        Ag, Au : Obtained from the Peterson Research Group Website (tyr0.chem.wsu.edu/~kipeters) Feb. 2017
                 K. A. Peterson, C. Puzzarini, Theor. Chem. Acc. 114, 283 (2005)

================================================================================
                                        WARNINGS
                       Please study these warnings very carefully!
================================================================================

WARNING: Gradients needed for Numerical Frequencies
  ===> : Setting RunTyp to EnGrad

WARNING: your system is open-shell and RHF/RKS was chosen
  ===> : WILL SWITCH to UHF/UKS


WARNING: The frozen-core approximation for MP2-gradient calculations is turned on by default.

WARNING: Post HF methods need fully converged wavefunctions
  ===> : Setting SCFConvForced true
         You can overwrite this default with %scf ConvForced false 


INFO   : the flag for use of the SHARK integral package has been found!

================================================================================
                                       INPUT FILE
================================================================================
NAME = ph3+.inp
|  1> # avogadro generated ORCA input file 
|  2> # PH3+ DUPLETO - FREQ
|  3> # 
|  4> ! MP2 cc-pvtz LARGEPRINT  NUMFREQ
|  5> %maxcore 3000
|  6> 
|  7> %freq
|  8>     Increment 0.001
|  9> end
| 10> 
| 11> * xyz 1 2
| 12>   P   -1.49001204882609     -0.30892476315604      0.27694850121426
| 13>   H   -0.35974050626098      0.41243123471272     -0.09426710350383
| 14>   H   -1.43124737796522     -1.64910389006585     -0.09201766150340
| 15>   H   -2.68083006694771      0.30952741850917     -0.09066373620703
| 16> *
| 17> 
| 18>                          ****END OF INPUT****
================================================================================

                     *******************************
                     * Energy+Gradient Calculation *
                     *******************************

---------------------------------
CARTESIAN COORDINATES (ANGSTROEM)
---------------------------------
  P     -1.490012   -0.308925    0.276949
  H     -0.359741    0.412431   -0.094267
  H     -1.431247   -1.649104   -0.092018
  H     -2.680830    0.309527   -0.090664

----------------------------
CARTESIAN COORDINATES (A.U.)
----------------------------
  NO LB      ZA    FRAG     MASS         X           Y           Z
   0 P    15.0000    0    30.974   -2.815715   -0.583783    0.523357
   1 H     1.0000    0     1.008   -0.679811    0.779382   -0.178139
   2 H     1.0000    0     1.008   -2.704666   -3.116355   -0.173888
   3 H     1.0000    0     1.008   -5.066035    0.584922   -0.171330

--------------------------------
INTERNAL COORDINATES (ANGSTROEM)
--------------------------------
 P      0   0   0     0.000000000000     0.00000000     0.00000000
 H      1   0   0     1.391283314347     0.00000000     0.00000000
 H      1   2   0     1.391283367246   113.22637604     0.00000000
 H      1   2   3     1.391283368114   113.22637312   229.37932692

---------------------------
INTERNAL COORDINATES (A.U.)
---------------------------
 P      0   0   0     0.000000000000     0.00000000     0.00000000
 H      1   0   0     2.629144438810     0.00000000     0.00000000
 H      1   2   0     2.629144538776   113.22637604     0.00000000
 H      1   2   3     2.629144540416   113.22637312   229.37932692

---------------------
BASIS SET INFORMATION
---------------------
There are 2 groups of distinct atoms

 Group   1 Type P   : 41s16p2d1f contracted to 5s4p2d1f pattern {13131311/7711/11/1}
 Group   2 Type H   : 5s2p1d contracted to 3s2p1d pattern {311/11/1}

Atom   0P    basis set group =>   1
Atom   1H    basis set group =>   2
Atom   2H    basis set group =>   2
Atom   3H    basis set group =>   2

-------------------------
BASIS SET IN INPUT FORMAT
-------------------------

 # Basis set for element : H 
 NewGTO H 
 S 3 
   1      33.8700000000      0.0254948632
   2       5.0950000000      0.1903627659
   3       1.1590000000      0.8521620222
 S 1 
   1       0.3258000000      1.0000000000
 S 1 
   1       0.1027000000      1.0000000000
 P 1 
   1       1.4070000000      1.0000000000
 P 1 
   1       0.3880000000      1.0000000000
 D 1 
   1       1.0570000000      1.0000000000
  end;

 # Basis set for element : P 
 NewGTO P 
 S 13 
   1  312400.0000000000      0.0000576896
   2   46800.0000000000      0.0004482466
   3   10650.0000000000      0.0023491311
   4    3018.0000000000      0.0097815718
   5     986.8000000000      0.0341429365
   6     357.4000000000      0.1001929560
   7     139.6000000000      0.2343461686
   8      57.6300000000      0.3823918499
   9      24.6000000000      0.3180529418
  10      10.1200000000      0.0707709991
  11       4.2830000000     -0.0018177896
  12       1.8050000000      0.0021615617
  13       0.2782000000      0.0004322494
 S 13 
   1  312400.0000000000     -0.0000163802
   2   46800.0000000000     -0.0001272335
   3   10650.0000000000     -0.0006686252
   4    3018.0000000000     -0.0027953037
   5     986.8000000000     -0.0099282274
   6     357.4000000000     -0.0302445665
   7     139.6000000000     -0.0778847053
   8      57.6300000000     -0.1567245715
   9      24.6000000000     -0.1980427537
  10      10.1200000000      0.0379712515
  11       4.2830000000      0.5527515441
  12       1.8050000000      0.5426114525
  13       0.2782000000     -0.0096759429
 S 13 
   1  312400.0000000000      0.0000068657
   2   46800.0000000000      0.0000532820
   3   10650.0000000000      0.0002804210
   4    3018.0000000000      0.0011707898
   5     986.8000000000      0.0041735911
   6     357.4000000000      0.0127204967
   7     139.6000000000      0.0331527664
   8      57.6300000000      0.0676712468
   9      24.6000000000      0.0898310189
  10      10.1200000000     -0.0203052324
  11       4.2830000000     -0.3132804090
  12       1.8050000000     -0.5636879055
  13       0.2782000000      1.1174940737
 S 1 
   1       0.6158000000      1.0000000000
 S 1 
   1       0.1055000000      1.0000000000
 P 7 
   1     504.9000000000      0.0024336604
   2     119.4000000000      0.0193055595
   3      37.9600000000      0.0884731069
   4      13.9500000000      0.2547019811
   5       5.4570000000      0.4401992427
   6       2.1770000000      0.3836320063
   7       0.2877000000     -0.0039463371
 P 7 
   1     504.9000000000     -0.0009542989
   2     119.4000000000     -0.0076640257
   3      37.9600000000     -0.0354659253
   4      13.9500000000     -0.1061647164
   5       5.4570000000     -0.1872105860
   6       2.1770000000     -0.1814958198
   7       0.2877000000      0.9916726446
 P 1 
   1       0.8010000000      1.0000000000
 P 1 
   1       0.0971400000      1.0000000000
 D 1 
   1       0.2160000000      1.0000000000
 D 1 
   1       0.6520000000      1.0000000000
 F 1 
   1       0.4520000000      1.0000000000
  end;

------------------------------------------------------------------------------
                           ORCA GTO INTEGRAL CALCULATION
------------------------------------------------------------------------------
------------------------------------------------------------------------------
                   ___                                                        
                  /   \      - P O W E R E D   B Y -                         
                 /     \                                                     
                 |  |  |   _    _      __       _____    __    __             
                 |  |  |  | |  | |    /  \     |  _  \  |  |  /  |          
                  \  \/   | |  | |   /    \    | | | |  |  | /  /          
                 / \  \   | |__| |  /  /\  \   | |_| |  |  |/  /          
                |  |  |   |  __  | /  /__\  \  |    /   |      \           
                |  |  |   | |  | | |   __   |  |    \   |  |\   \          
                \     /   | |  | | |  |  |  |  | |\  \  |  | \   \       
                 \___/    |_|  |_| |__|  |__|  |_| \__\ |__|  \__/        
                                                                              
                      - O R C A' S   B I G   F R I E N D -                    
                                      &                                       
                       - I N T E G R A L  F E E D E R -                       
                                                                              
 v1 FN, 2020, v2 2021                                                         
------------------------------------------------------------------------------


Reading SHARK input file ph3+.SHARKINP.tmp ... SHARK General Contraction Test:  (Partially) Generally contracted basis detected
   -> Decontract basis set ...  ok (NBasis(old)=76 Nbasis(new)=101 NShells(old)=30 NShells(new)=45
   -> Initialize Partial General Contraction ...  ok
   -> Checking for pre-screening matrix
   -> Pre-screening matrix *NOT* found on disk - recalculating with NShells=45
   -> Leaving CheckPreScreeningMatrix
   -> Pre-screening check done
   -> done initializing partial contraction
SHARK Warning: The basis set dimension has changed.
   -> Redoing pre-screening ...  ok
   -> Storing Pre-screening   ... ok
   -> Redoing Shell Pair Data ... ok
ok
----------------------
SHARK INTEGRAL PACKAGE
----------------------

Number of atoms                             ...      4
Number of basis functions                   ...    101
Number of shells                            ...     45
Maximum angular momentum                    ...      3
Integral batch strategy                     ... SHARK/LIBINT Hybrid
RI-J (if used) integral strategy            ... SPLIT-RIJ (Revised 2003 algorithm where possible)
Printlevel                                  ...      2
Contraction scheme used                     ... PARTIAL GENERAL contraction
Coulomb Range Separation                    ... NOT USED
Exchange Range Separation                   ... NOT USED
Finite Nucleus Model                        ... NOT USED
Auxiliary Coulomb fitting basis             ... NOT available
Auxiliary J/K fitting basis                 ... NOT available
Auxiliary Correlation fitting basis         ... NOT available
Auxiliary 'external' fitting basis          ... NOT available
Integral threshold                          ...     2.500000e-11
Primitive cut-off                           ...     2.500000e-12
Primitive pair pre-selection threshold      ...     2.500000e-12

Calculating pre-screening integrals         ... done (  0.1 sec) Dimension = 45
Calculating pre-screening integrals (ORCA)  ... done (  0.2 sec) Dimension = 30
Organizing shell pair data                  ... done (  0.0 sec)
Shell pair information
Total number of shell pairs                 ...      1035
Shell pairs after pre-screening             ...      1034
Total number of primitive shell pairs       ...      1335
Primitive shell pairs kept                  ...      1259
          la=0 lb=0:    300 shell pairs
          la=1 lb=0:    360 shell pairs
          la=1 lb=1:    120 shell pairs
          la=2 lb=0:    120 shell pairs
          la=2 lb=1:     75 shell pairs
          la=2 lb=2:     15 shell pairs
          la=3 lb=0:     23 shell pairs
          la=3 lb=1:     15 shell pairs
          la=3 lb=2:      5 shell pairs
          la=3 lb=3:      1 shell pairs

Calculating one electron integrals          ... done (  0.0 sec)
Calculating Nuclear repulsion               ... done (  0.0 sec) ENN=     17.799128970677 Eh

SHARK setup successfully completed in   0.4 seconds

Maximum memory used throughout the entire GTOINT-calculation: 47.1 MB
-------------------------------------------------------------------------------
                                 ORCA SCF
-------------------------------------------------------------------------------

------------
SCF SETTINGS
------------
Hamiltonian:
 Ab initio Hamiltonian  Method          .... Hartree-Fock(GTOs)


General Settings:
 Integral files         IntName         .... ph3+
 Hartree-Fock type      HFTyp           .... UHF
 Total Charge           Charge          ....    1
 Multiplicity           Mult            ....    2
 Number of Electrons    NEL             ....   17
 Basis Dimension        Dim             ....   76
 Nuclear Repulsion      ENuc            ....     17.7991289707 Eh

Convergence Acceleration:
 DIIS                   CNVDIIS         .... on
   Start iteration      DIISMaxIt       ....    12
   Startup error        DIISStart       ....  0.200000
   # of expansion vecs  DIISMaxEq       ....     5
   Bias factor          DIISBfac        ....   1.050
   Max. coefficient     DIISMaxC        ....  10.000
 Trust-Rad. Augm. Hess. CNVTRAH         .... auto
   Auto Start mean grad. ratio tolernc. ....  1.125000
   Auto Start start iteration           ....    20
   Auto Start num. interpolation iter.  ....    10
   Max. Number of Micro iterations      ....    16
   Max. Number of Macro iterations      .... Maxiter - #DIIS iter
   Number of Davidson start vectors     ....     2
   Converg. threshold I  (grad. norm)   ....   1.000e-05
   Converg. threshold II (energy diff.) ....   1.000e-08
   Grad. Scal. Fac. for Micro threshold ....   0.100
   Minimum threshold for Micro iter.    ....   0.010
   NR start threshold (gradient norm)   ....   0.001
   Initial trust radius                 ....   0.400
   Minimum AH scaling param. (alpha)    ....   1.000
   Maximum AH scaling param. (alpha)    .... 1000.000
   Orbital update algorithm             .... Taylor
   White noise on init. David. guess    .... on
   Maximum white noise                  ....   0.010
   Quad. conv. algorithm                .... NR
 SOSCF                  CNVSOSCF        .... off
 Level Shifting         CNVShift        .... on
   Level shift para.    LevelShift      ....    0.2500
   Turn off err/grad.   ShiftErr        ....    0.0010
 Zerner damping         CNVZerner       .... off
 Static damping         CNVDamp         .... on
   Fraction old density DampFac         ....    0.7000
   Max. Damping (<1)    DampMax         ....    0.9800
   Min. Damping (>=0)   DampMin         ....    0.0000
   Turn off err/grad.   DampErr         ....    0.1000
 Fernandez-Rico         CNVRico         .... off

SCF Procedure:
 Maximum # iterations   MaxIter         ....   125
 SCF integral mode      SCFMode         .... Direct
   Integral package                     .... SHARK and LIBINT hybrid scheme
 Reset frequency        DirectResetFreq ....    20
 Integral Threshold     Thresh          ....  2.500e-11 Eh
 Primitive CutOff       TCut            ....  2.500e-12 Eh

Convergence Tolerance:
 Convergence Check Mode ConvCheckMode   .... Total+1el-Energy
 Convergence forced     ConvForced      .... 1
 Energy Change          TolE            ....  1.000e-08 Eh
 1-El. energy change                    ....  1.000e-05 Eh
 DIIS Error             TolErr          ....  5.000e-07


Diagonalization of the overlap matrix:
Smallest eigenvalue                        ... 3.035e-03
Time for diagonalization                   ...    0.009 sec
Threshold for overlap eigenvalues          ... 1.000e-08
Number of eigenvalues below threshold      ... 0
Time for construction of square roots      ...    0.004 sec
Total time needed                          ...    0.013 sec

SHARK General Contraction Test:  (Partially) Generally contracted basis detected
   -> Decontract basis set ...  ok (NBasis(old)=76 Nbasis(new)=101 NShells(old)=30 NShells(new)=45
   -> Initialize Partial General Contraction ...  ok
   -> Checking for pre-screening matrix
   -> Pre-screening matrix found on disk - Trying to read with NShells=45
   -> Passing Pre-screening matrix on to SHARK ...ok
   -> Leaving CheckPreScreeningMatrix
   -> Pre-screening check done
   -> done initializing partial contraction
SHARK Warning: The basis set dimension has changed.
   -> Pre-screening successfully read from disk
   -> Pre-screening set to shark
   -> Redoing Shell Pair Data ... ok
----------------------
SHARK INTEGRAL PACKAGE
----------------------

Number of atoms                             ...      4
Number of basis functions                   ...    101
Number of shells                            ...     45
Maximum angular momentum                    ...      3
Integral batch strategy                     ... SHARK/LIBINT Hybrid
RI-J (if used) integral strategy            ... SPLIT-RIJ (Revised 2003 algorithm where possible)
Printlevel                                  ...      2
Contraction scheme used                     ... PARTIAL GENERAL contraction
Coulomb Range Separation                    ... NOT USED
Exchange Range Separation                   ... NOT USED
Finite Nucleus Model                        ... NOT USED
Auxiliary Coulomb fitting basis             ... NOT available
Auxiliary J/K fitting basis                 ... NOT available
Auxiliary Correlation fitting basis         ... NOT available
Auxiliary 'external' fitting basis          ... NOT available
Integral threshold                          ...     2.500000e-11
Primitive cut-off                           ...     2.500000e-12
Primitive pair pre-selection threshold      ...     2.500000e-12

Time for model grid setup =    0.053 sec

------------------------------
INITIAL GUESS: MODEL POTENTIAL
------------------------------
Loading Hartree-Fock densities                     ... done
Calculating cut-offs                               ... done
Initializing the effective Hamiltonian             ... done
Setting up the integral package (SHARK)            ... done
Starting the Coulomb interaction                   ...     -> Generating integrals - 
    -> L=0 0 :     0.010 sec done=      9300 skipped=         0 prim-skipped=         0
    -> L=1 0 :     0.012 sec done=     11160 skipped=         0 prim-skipped=         0
    -> L=1 1 :     0.005 sec done=      3720 skipped=         0 prim-skipped=         0
    -> L=2 0 :     0.004 sec done=      3700 skipped=        14 prim-skipped=         0
    -> L=2 1 :     0.004 sec done=      2325 skipped=         0 prim-skipped=         0
    -> L=2 2 :     0.001 sec done=       465 skipped=         0 prim-skipped=         0
    -> L=3 0 :     0.002 sec done=       690 skipped=        13 prim-skipped=         0
    -> L=3 1 :     0.001 sec done=       465 skipped=         0 prim-skipped=         0
    -> L=3 2 :     0.001 sec done=       155 skipped=         0 prim-skipped=         0
    -> L=3 3 :     0.000 sec done=        31 skipped=         0 prim-skipped=         0
done (   0.1 sec)
Reading the grid                                   ... done
Mapping shells                                     ... done
Starting the XC term evaluation                    ... done (   0.0 sec)
Transforming the Hamiltonian                       ... done (   0.0 sec)
Diagonalizing the Hamiltonian                      ... done (   0.0 sec)
Back transforming the eigenvectors                 ... done (   0.0 sec)
Now organizing SCF variables                       ... done
                      ------------------
                      INITIAL GUESS DONE (   0.2 sec)
                      ------------------
----------------------
INITIAL GUESS ORBITALS
----------------------
                      0         1         2         3         4         5   
                 -76.02736  -6.33226  -4.57810  -4.57807  -4.57468  -0.65374
                   1.00000   1.00000   1.00000   1.00000   1.00000   1.00000
                  --------  --------  --------  --------  --------  --------
  0P   1s         1.001949  0.011171  0.000001 -0.000000 -0.000151  0.001978
  0P   2s         0.012528 -0.900162 -0.000002  0.000003  0.001246  0.031808
  0P   3s         0.011328  0.038223  0.000002 -0.000001 -0.002181 -0.540352
  0P   4s        -0.009594 -0.117605 -0.000006  0.000001  0.000407 -0.084452
  0P   5s        -0.000225 -0.009187 -0.000005 -0.000003 -0.002268 -0.229990
  0P   1pz       -0.000957 -0.000189  0.001028 -0.001106  0.953508 -0.010345
  0P   1px       -0.000002  0.000006 -0.229664  0.927630  0.001318 -0.000165
  0P   1py       -0.000000 -0.000014  0.927632  0.229665 -0.000727  0.000347
  0P   2pz       -0.002122 -0.004901  0.000004 -0.000010  0.001508  0.050153
  0P   2px       -0.000003 -0.000005 -0.001860  0.007496  0.000002 -0.000243
  0P   2py       -0.000001 -0.000011  0.007498  0.001860  0.000004  0.000742
  0P   3pz        0.000359  0.001657  0.000096 -0.000106  0.090773  0.019784
  0P   3px        0.000001  0.000002 -0.021856  0.088281  0.000125  0.000094
  0P   3py        0.000000  0.000004  0.088279  0.021856 -0.000073 -0.000181
  0P   4pz       -0.000024  0.000696  0.000001 -0.000004  0.001122  0.011294
  0P   4px       -0.000000  0.000002 -0.000712  0.002877  0.000002 -0.000234
  0P   4py       -0.000000 -0.000001  0.002884  0.000715 -0.000001  0.000198
  0P   1dz2      -0.001390 -0.003065  0.000000  0.000004  0.000838  0.013299
  0P   1dxz      -0.000004 -0.000009  0.000348 -0.001424  0.000002  0.000205
  0P   1dyz      -0.000001  0.000000 -0.001426 -0.000359 -0.000002 -0.000164
  0P   1dx2y2    -0.000000 -0.000006  0.003365  0.000372  0.000001  0.000504
  0P   1dxy       0.000000  0.000001 -0.000372  0.003354 -0.000000 -0.000156
  0P   2dz2      -0.000621 -0.000663 -0.000001  0.000004 -0.000167  0.020095
  0P   2dxz      -0.000002 -0.000002  0.000348 -0.001415  0.000000  0.000054
  0P   2dyz      -0.000000  0.000001 -0.001411 -0.000352  0.000001 -0.000086
  0P   2dx2y2     0.000000  0.000001  0.001715  0.000187 -0.000001  0.000033
  0P   2dxy       0.000000  0.000000 -0.000193  0.001715 -0.000000 -0.000032
  0P   1f0        0.000659  0.001249 -0.000001  0.000003 -0.000633 -0.006520
  0P   1f+1       0.000002  0.000005  0.000248 -0.000989 -0.000003  0.000004
  0P   1f-1       0.000000  0.000001 -0.000993 -0.000243  0.000001  0.000007
  0P   1f+2      -0.000000  0.000002 -0.001111 -0.000126  0.000002 -0.000220
  0P   1f-2      -0.000003 -0.000006  0.000120 -0.001111  0.000002  0.000082
  0P   1f+3       0.000186  0.000349  0.000003  0.000000 -0.000093 -0.001676
  0P   1f-3      -0.001393 -0.002615 -0.000000  0.000003  0.000695  0.012724
  1H   1s         0.000172  0.000268  0.000309  0.000918 -0.000188 -0.077218
  1H   2s        -0.003202 -0.007176 -0.002013 -0.005971  0.001307 -0.097178
  1H   3s         0.000041  0.001572 -0.000616 -0.001823  0.000523 -0.011830
  1H   1pz       -0.000022  0.000012 -0.000003 -0.000011  0.000051 -0.001853
  1H   1px        0.000098  0.000095  0.000025  0.000140 -0.000044  0.006346
  1H   1py        0.000062  0.000061  0.000060  0.000075 -0.000028  0.004041
  1H   2pz       -0.000568 -0.001269 -0.000327 -0.000970  0.000234 -0.001702
  1H   2px        0.001516  0.003307  0.000776  0.002852 -0.000624  0.008970
  1H   2py        0.000967  0.002110  0.000861  0.001697 -0.000399  0.005812
  1H   1dz2       0.000109  0.000173  0.000093  0.000277 -0.000102  0.001422
  1H   1dxz       0.000106  0.000116  0.000094  0.000240  0.000015  0.000669
  1H   1dyz       0.000068  0.000074  0.000034  0.000162  0.000010  0.000393
  1H   1dx2y2    -0.000099 -0.000134 -0.000062 -0.000229  0.000051 -0.000854
  1H   1dxy      -0.000213 -0.000288 -0.000168 -0.000482  0.000110 -0.001888
  2H   1s         0.000172  0.000269 -0.000951 -0.000192 -0.000188 -0.077266
  2H   2s        -0.003202 -0.007184  0.006185  0.001248  0.001310 -0.096407
  2H   3s         0.000041  0.001571  0.001891  0.000381  0.000523 -0.011717
  2H   1pz       -0.000021  0.000012  0.000011  0.000002  0.000051 -0.001855
  2H   1px        0.000005  0.000005 -0.000015  0.000037 -0.000002  0.000317
  2H   1py       -0.000116 -0.000113  0.000162  0.000034  0.000051 -0.007508
  2H   2pz       -0.000565 -0.001263  0.000997  0.000200  0.000232 -0.001641
  2H   2px        0.000079  0.000172 -0.000214  0.000287 -0.000033  0.000452
  2H   2py       -0.001798 -0.003925  0.003431  0.000707  0.000742 -0.010308
  2H   1dz2       0.000110  0.000173 -0.000288 -0.000058 -0.000102  0.001390
  2H   1dxz       0.000005  0.000006 -0.000008 -0.000026  0.000001  0.000023
  2H   1dyz      -0.000125 -0.000136  0.000296  0.000058 -0.000019 -0.000776
  2H   1dx2y2     0.000234  0.000317 -0.000550 -0.000112 -0.000121  0.002025
  2H   1dxy       0.000021  0.000028 -0.000051  0.000004 -0.000011  0.000172
  3H   1s         0.000172  0.000268  0.000640 -0.000727 -0.000188 -0.077185
  3H   2s        -0.003202 -0.007171 -0.004169  0.004726  0.001306 -0.097766
  3H   3s         0.000041  0.001573 -0.001272  0.001443  0.000523 -0.012101
  3H   1pz       -0.000021  0.000013 -0.000007  0.000009  0.000051 -0.001818
  3H   1px       -0.000103 -0.000100 -0.000084  0.000123  0.000046 -0.006684
  3H   1py        0.000053  0.000052  0.000077 -0.000035 -0.000024  0.003478
  3H   2pz       -0.000564 -0.001258 -0.000671  0.000760  0.000232 -0.001714
  3H   2px       -0.001597 -0.003483 -0.001943  0.002432  0.000657 -0.009696
  3H   2py        0.000829  0.001808  0.001285 -0.001020 -0.000342  0.005130
  3H   1dz2       0.000110  0.000173  0.000194 -0.000220 -0.000102  0.001432
  3H   1dxz      -0.000111 -0.000120 -0.000186  0.000195 -0.000017 -0.000684
  3H   1dyz       0.000057  0.000063  0.000077 -0.000118  0.000009  0.000347
  3H   1dx2y2    -0.000135 -0.000183 -0.000205  0.000252  0.000069 -0.001201
  3H   1dxy       0.000192  0.000260  0.000312 -0.000341 -0.000099  0.001739
                      6         7         8         9        10        11   
                  -0.43485  -0.43484  -0.25724  -0.04745  -0.02926  -0.02920
                   1.00000   1.00000   1.00000   0.00000   0.00000   0.00000
                  --------  --------  --------  --------  --------  --------
  0P   1s         0.000001  0.000015 -0.000056 -0.003445  0.000006 -0.000017
  0P   2s         0.000011  0.000093  0.001250 -0.008677  0.000009 -0.000126
  0P   3s         0.000013  0.000117  0.172406  0.383520 -0.001041 -0.000525
  0P   4s        -0.000031 -0.000041  0.027983  0.075507 -0.000173 -0.000096
  0P   5s         0.000465 -0.000423  0.219063  1.580694 -0.003642 -0.000116
  0P   1pz        0.000028  0.000106 -0.040822  0.003150 -0.000052 -0.000033
  0P   1px       -0.049620 -0.016494  0.000041  0.000172  0.021269 -0.033342
  0P   1py       -0.016736  0.050109 -0.000813 -0.000433 -0.033626 -0.021583
  0P   2pz       -0.000696  0.000120  0.490594 -0.154300  0.000563 -0.000453
  0P   2px        0.346911  0.114985  0.000992 -0.000140 -0.146236  0.227295
  0P   2py        0.114468 -0.345846 -0.001587 -0.000145  0.226847  0.145794
  0P   3pz       -0.000185 -0.000102  0.173574 -0.054212  0.000263 -0.000085
  0P   3px        0.130140  0.043175  0.000229 -0.000240 -0.069244  0.107918
  0P   3py        0.043277 -0.130336  0.000436  0.000464  0.108073  0.069440
  0P   4pz       -0.000263 -0.000040  0.372460 -0.434854  0.001687 -0.001496
  0P   4px        0.121388  0.040271  0.000768 -0.001688 -0.641049  0.997373
  0P   4py        0.039738 -0.120430 -0.000660  0.004209  0.994585  0.638688
  0P   1dz2      -0.000006  0.000014 -0.006077  0.083720 -0.000272 -0.000257
  0P   1dxz      -0.020026 -0.006617 -0.000080  0.000028 -0.017285  0.028028
  0P   1dyz      -0.006298  0.019238  0.000682 -0.000275  0.028761  0.018984
  0P   1dx2y2     0.004799 -0.027348 -0.001398 -0.000483 -0.149040 -0.069836
  0P   1dxy       0.028089  0.005364  0.000147  0.000132  0.068633 -0.147348
  0P   2dz2       0.000063  0.000032  0.003420  0.069086 -0.000198 -0.000224
  0P   2dxz      -0.028415 -0.009341  0.000028  0.000115 -0.030436  0.047778
  0P   2dyz      -0.009505  0.028433 -0.000027  0.000411  0.047315  0.030622
  0P   2dx2y2     0.008863 -0.047007  0.000038 -0.000416 -0.119199 -0.055715
  0P   2dxy       0.047005  0.008972 -0.000006  0.000071  0.055934 -0.119222
  0P   1f0        0.000059 -0.000031 -0.007472 -0.002250 -0.000004  0.000032
  0P   1f+1      -0.006762 -0.002253 -0.000056 -0.000023 -0.000376  0.000577
  0P   1f-1      -0.002163  0.006662 -0.000034 -0.000031  0.000732  0.000429
  0P   1f+2      -0.001276  0.007048  0.000253  0.000270  0.010702  0.005015
  0P   1f-2      -0.007313 -0.001401 -0.000017 -0.000050 -0.004738  0.010378
  0P   1f+3      -0.000002 -0.000010 -0.000310 -0.001008 -0.000044  0.000003
  0P   1f-3      -0.000040  0.000018  0.002359  0.007432 -0.000051 -0.000103
  1H   1s         0.161008 -0.040676 -0.039681 -0.084019  0.000529 -0.108065
  1H   2s         0.245353 -0.062521 -0.076397 -0.182659  0.002984 -0.233017
  1H   3s         0.094937 -0.024191 -0.046697 -0.820458  0.005775 -1.104929
  1H   1pz        0.003562 -0.000911  0.004430 -0.000817  0.000030  0.003498
  1H   1px       -0.009022  0.003636  0.002227 -0.008822 -0.005403 -0.005508
  1H   1py       -0.006461 -0.000492  0.001445 -0.005592  0.008540 -0.003485
  1H   2pz        0.006221 -0.001589  0.020283 -0.015853  0.000046  0.016818
  1H   2px       -0.007849  0.008037  0.005728  0.001120 -0.024829 -0.011248
  1H   2py       -0.008133 -0.007031  0.003430  0.000712  0.038122 -0.007051
  1H   1dz2      -0.000483  0.000137  0.001872  0.000056 -0.000034 -0.002477
  1H   1dxz      -0.001499  0.000531 -0.001949  0.001072 -0.001374 -0.003142
  1H   1dyz      -0.000971  0.000011 -0.001291  0.000673  0.002176 -0.002064
  1H   1dx2y2     0.000181 -0.002786 -0.000660  0.000482  0.002573  0.001759
  1H   1dxy       0.002147  0.000715 -0.001380  0.001034 -0.001196  0.003761
  2H   1s        -0.045223  0.159758 -0.039592 -0.083662  0.093789  0.054461
  2H   2s        -0.069766  0.244599 -0.078517 -0.182048  0.200647  0.116298
  2H   3s        -0.027103  0.094854 -0.047955 -0.815359  0.956353  0.555119
  2H   1pz       -0.001014  0.003573  0.004453 -0.000880 -0.002978 -0.001747
  2H   1px        0.002486  0.000217  0.000115 -0.000470 -0.004814  0.008873
  2H   1py       -0.003002  0.011007 -0.002614  0.010386 -0.005902 -0.002899
  2H   2pz       -0.001804  0.006139  0.020047 -0.015893 -0.014574 -0.008562
  2H   2px        0.010340  0.002309  0.000439 -0.000005 -0.022423  0.039705
  2H   2py       -0.003035  0.011610 -0.007758 -0.001505 -0.013073 -0.005398
  2H   1dz2       0.000152 -0.000513  0.001874  0.000115  0.002193  0.001265
  2H   1dxz       0.000275  0.000014 -0.000116  0.000054 -0.001139  0.002330
  2H   1dyz      -0.000499  0.001766  0.002364 -0.001291 -0.003284 -0.001777
  2H   1dx2y2     0.000352 -0.002138  0.001609 -0.001059  0.003728  0.001870
  2H   1dxy       0.002867  0.000606  0.000157 -0.000092 -0.001125  0.002656
  3H   1s        -0.115774 -0.119064 -0.039717 -0.084146 -0.093547  0.053820
  3H   2s        -0.176017 -0.181872 -0.076050 -0.182372 -0.201682  0.116411
  3H   3s        -0.068093 -0.070386 -0.046445 -0.821980 -0.956795  0.551168
  3H   1pz       -0.002519 -0.002586  0.004445 -0.000822  0.003033 -0.001745
  3H   1px       -0.006275 -0.008057 -0.002344  0.009294  0.007335  0.001118
  3H   1py        0.005246  0.002297  0.001240 -0.004792  0.001862  0.009225
  3H   2pz       -0.004457 -0.004645  0.020359 -0.015860  0.014586 -0.008382
  3H   2px       -0.003379 -0.010804 -0.005768 -0.001026  0.020544  0.012535
  3H   2py        0.010290 -0.002736  0.002889  0.000519  0.014669  0.038248
  3H   1dz2       0.000330  0.000353  0.001861  0.000025 -0.002180  0.001242
  3H   1dxz      -0.001056 -0.001264  0.002084 -0.001117  0.003460 -0.000632
  3H   1dyz       0.000746  0.000426 -0.001087  0.000578 -0.000372  0.002869
  3H   1dx2y2     0.000867 -0.002541 -0.000887  0.000661  0.003191  0.000823
  3H   1dxy       0.002411  0.000082  0.001247 -0.000955 -0.002116  0.003136
                     12        13        14        15        16        17   
                   0.11395   0.12722   0.12730   0.16649   0.16652   0.21980
                   0.00000   0.00000   0.00000   0.00000   0.00000   0.00000
                  --------  --------  --------  --------  --------  --------
  0P   1s        -0.029723  0.000090 -0.000106  0.000002 -0.000138  0.013056
  0P   2s        -0.206639  0.000632 -0.000779  0.000009 -0.000915  0.095276
  0P   3s        -0.350615  0.001118 -0.001675 -0.000015 -0.001374  0.235425
  0P   4s        -0.019425 -0.000121 -0.000092  0.000138 -0.000011  0.037833
  0P   5s        -0.275712  0.005994 -0.006936 -0.003820  0.003819 -0.169656
  0P   1pz        0.024170  0.000202 -0.000320 -0.000194 -0.000638  0.276804
  0P   1px       -0.000010 -0.130279 -0.060549 -0.024809 -0.007047  0.000427
  0P   1py        0.000825  0.060225 -0.129384  0.007449 -0.025134 -0.001621
  0P   2pz        0.076733  0.001356 -0.001587 -0.000915 -0.002375  1.146486
  0P   2px       -0.000614 -0.565706 -0.262968 -0.064294 -0.018380  0.002536
  0P   2py        0.003930  0.262150 -0.562833  0.019242 -0.063589 -0.005829
  0P   3pz        0.003728  0.000227 -0.000108 -0.000052 -0.000058  0.092166
  0P   3px       -0.000197 -0.057454 -0.026704  0.004796  0.001349  0.000346
  0P   3py        0.000454  0.026799 -0.057546 -0.001453  0.005511 -0.000139
  0P   4pz       -0.028588 -0.002278  0.003987  0.001650  0.001803 -1.361229
  0P   4px        0.000343  0.140533  0.067509  0.208159  0.061594 -0.009423
  0P   4py       -0.000148 -0.066877  0.136528 -0.059088  0.207510  0.013341
  0P   1dz2       0.461385 -0.003000  0.003726 -0.000352 -0.001424 -0.062578
  0P   1dxz      -0.000136  0.024339  0.012977  0.653874  0.186904  0.002014
  0P   1dyz      -0.000037 -0.012246  0.029833 -0.189121  0.654685 -0.000932
  0P   1dx2y2     0.001523  0.136668 -0.215332 -0.134895  0.311405  0.003050
  0P   1dxy      -0.000358 -0.216919 -0.136535  0.312140  0.138460 -0.001995
  0P   2dz2       0.136827 -0.000806  0.000823 -0.000218  0.000231 -0.024594
  0P   2dxz       0.000266  0.031884  0.015166  0.156261  0.044815  0.000477
  0P   2dyz      -0.000166 -0.014875  0.032445 -0.044922  0.155687  0.000595
  0P   2dx2y2     0.000646  0.054982 -0.086204 -0.026208  0.061484 -0.000353
  0P   2dxy      -0.000045 -0.086555 -0.054975  0.060554  0.027028  0.000028
  0P   1f0       -0.013448  0.000302 -0.000437 -0.000027  0.000083 -0.002498
  0P   1f+1      -0.000031  0.004591  0.002038 -0.011676 -0.003428  0.000216
  0P   1f-1       0.000016 -0.002083  0.004438  0.003346 -0.011781  0.000203
  0P   1f+2       0.000103 -0.002946  0.004572  0.000173 -0.000398  0.000174
  0P   1f-2      -0.000002  0.005004  0.003098 -0.000880 -0.000463  0.000292
  0P   1f+3      -0.002817  0.000223  0.000054  0.000025 -0.000004 -0.001676
  0P   1f-3       0.021070 -0.000370  0.000429  0.000210 -0.000162  0.012096
  1H   1s        -0.073778 -0.022108 -0.035712 -0.007985 -0.008845  0.001358
  1H   2s        -0.366978 -0.198758 -0.315858 -0.055079 -0.060657  0.013154
  1H   3s         0.655322  0.695714  1.101765  0.014500  0.008670 -0.065570
  1H   1pz       -0.005201 -0.003398 -0.005305  0.002396  0.002751 -0.003856
  1H   1px        0.010847  0.010577  0.014533  0.000699  0.003299 -0.000795
  1H   1py        0.006908  0.004527  0.010642  0.003329 -0.000339 -0.000459
  1H   2pz       -0.021570  0.006775  0.010730  0.068909  0.077539  0.038944
  1H   2px       -0.049310 -0.004713 -0.043207 -0.009530  0.036116 -0.002296
  1H   2py       -0.031835 -0.037898 -0.005115  0.044750 -0.022790 -0.001471
  1H   1dz2       0.000202 -0.001983 -0.003149 -0.000792 -0.000876 -0.000989
  1H   1dxz      -0.000815 -0.002292 -0.003373  0.002973  0.001125 -0.002565
  1H   1dyz      -0.000553 -0.001295 -0.002335 -0.000665  0.002870 -0.001589
  1H   1dx2y2     0.000635  0.002386  0.002206 -0.001366  0.002621  0.001184
  1H   1dxy       0.001335  0.003316  0.005908  0.002479  0.000904  0.002449
  2H   1s        -0.074133 -0.018802  0.036720 -0.003996  0.010991  0.001517
  2H   2s        -0.371582 -0.171377  0.330464 -0.025393  0.072267  0.012856
  2H   3s         0.670201  0.593525 -1.152415  0.008888 -0.011089 -0.058831
  2H   1pz       -0.005364 -0.002897  0.005613  0.001163 -0.003521 -0.003862
  2H   1px        0.000547  0.002423  0.000248 -0.003006 -0.001189 -0.000052
  2H   1py       -0.013049 -0.009606  0.018824 -0.001311  0.003200  0.000917
  2H   2pz       -0.020925  0.005997 -0.011946  0.033173 -0.098594  0.038279
  2H   2px       -0.002527  0.029807  0.017486 -0.053601 -0.019320 -0.000259
  2H   2py        0.058733  0.021328 -0.038905 -0.009244  0.020963  0.002643
  2H   1dz2       0.000185 -0.001696  0.003277 -0.000433  0.001242 -0.000908
  2H   1dxz      -0.000048 -0.000289  0.000111  0.002700  0.000789 -0.000126
  2H   1dyz       0.001009  0.002216 -0.004260 -0.000914  0.003144  0.002874
  2H   1dx2y2    -0.001513 -0.003288  0.006537 -0.001097  0.002342 -0.002513
  2H   1dxy      -0.000142 -0.001164  0.000123  0.002821  0.001198 -0.000241
  3H   1s        -0.073799  0.042055 -0.002432  0.011655 -0.002414  0.001760
  3H   2s        -0.365644  0.372679 -0.018456  0.080917 -0.014891  0.010993
  3H   3s         0.652955 -1.302035  0.067173 -0.018243  0.001807 -0.076265
  3H   1pz       -0.005106  0.006233 -0.000304 -0.003586  0.000770 -0.003816
  3H   1px       -0.011386  0.018894  0.000049  0.002803 -0.002005  0.000887
  3H   1py        0.005962 -0.009758  0.002403 -0.002175 -0.002403 -0.000413
  3H   2pz       -0.021708 -0.012395  0.000525 -0.101905  0.020310  0.037840
  3H   2px        0.052087 -0.040417  0.018708  0.015802 -0.030016  0.001031
  3H   2py       -0.027606  0.023203  0.029808 -0.021126 -0.048661 -0.000875
  3H   1dz2       0.000151  0.003778 -0.000165  0.001146 -0.000238 -0.000986
  3H   1dxz       0.000859 -0.004334  0.000102  0.003133  0.000652  0.002648
  3H   1dyz      -0.000461  0.002258 -0.000261 -0.001021  0.002731 -0.001344
  3H   1dx2y2     0.000858 -0.004347 -0.000548 -0.000900  0.002753  0.001525
  3H   1dxy      -0.001213  0.006092 -0.000758  0.002385  0.001257 -0.002174
                     18        19        20        21        22        23   
                   0.30520   0.30608   0.34009   0.39271   0.54225   0.54228
                   0.00000   0.00000   0.00000   0.00000   0.00000   0.00000
                  --------  --------  --------  --------  --------  --------
  0P   1s         0.000135 -0.000031  0.050754  0.063000  0.000159  0.000174
  0P   2s         0.001040 -0.000204  0.385288  0.477520  0.001215  0.001382
  0P   3s         0.002356  0.000243  0.961180  0.985579  0.002599  0.003195
  0P   4s         0.001527 -0.001181  0.282376  0.501578  0.000967  0.001459
  0P   5s        -0.019976  0.018172 -3.630468 -5.906676 -0.009988 -0.013939
  0P   1pz        0.000110 -0.000116  0.025243  0.152221 -0.000117  0.000710
  0P   1px       -0.024727 -0.001213 -0.000111 -0.000279  0.218529 -0.053450
  0P   1py        0.001458 -0.025671  0.000973  0.001353 -0.053624 -0.218319
  0P   2pz       -0.002049  0.001490 -0.115104  0.370835 -0.000714  0.001509
  0P   2px        0.378062  0.024221 -0.001401 -0.001954  0.800919 -0.195938
  0P   2py       -0.023437  0.377084  0.001858  0.006303 -0.196365 -0.799860
  0P   3pz       -0.000987  0.000877 -0.072454 -0.042521 -0.000177 -0.000435
  0P   3px        0.170309  0.010526 -0.000440 -0.000468  0.053523 -0.013143
  0P   3py       -0.010491  0.171374 -0.000381  0.001057 -0.013103 -0.053373
  0P   4pz        0.011249 -0.006682  0.531321  0.916138 -0.000069  0.002543
  0P   4px       -3.220775 -0.196101  0.005182  0.006620  0.861359 -0.210156
  0P   4py        0.196304 -3.220008  0.007313 -0.007697 -0.210347 -0.865738
  0P   1dz2       0.001658 -0.006805 -0.274848  1.184086  0.002966  0.000817
  0P   1dxz       0.544174  0.034128 -0.001077  0.003726 -0.675959  0.167416
  0P   1dyz      -0.031441  0.544154 -0.002719 -0.001894  0.164052  0.680077
  0P   1dx2y2     0.183138 -0.930671  0.004185  0.003162 -0.477838 -1.221408
  0P   1dxy      -0.931681 -0.180893  0.001111  0.000241  1.219750 -0.475705
  0P   2dz2       0.000241 -0.000424 -0.028278  0.155773  0.000623  0.000644
  0P   2dxz       0.060993  0.004020 -0.000268  0.000003 -0.083290  0.020585
  0P   2dyz      -0.003234  0.061278 -0.000150  0.001167  0.019890  0.082594
  0P   2dx2y2     0.024227 -0.122921  0.000186 -0.000400 -0.052276 -0.133348
  0P   2dxy      -0.122754 -0.023655  0.000197  0.000156  0.133219 -0.051840
  0P   1f0       -0.000836  0.000877 -0.069655 -0.114514 -0.000220 -0.000245
  0P   1f+1       0.059897  0.003446 -0.000294 -0.000511  0.021831 -0.005366
  0P   1f-1      -0.003834  0.059457 -0.000403 -0.000185 -0.005450 -0.022426
  0P   1f+2      -0.019999  0.103549 -0.000513  0.000089  0.006319  0.015851
  0P   1f-2       0.102865  0.020296  0.000175  0.000413 -0.015512  0.005923
  0P   1f+3      -0.000662 -0.000211 -0.020160 -0.031541  0.000337 -0.000382
  0P   1f-3       0.000861 -0.001461  0.150830  0.237486  0.000172 -0.000044
  1H   1s        -0.088164 -0.064072 -0.098239 -0.004292 -0.040078  0.041770
  1H   2s         0.362651  0.254799 -0.306332  1.092315 -1.342138  1.406746
  1H   3s         2.270032  1.641521  1.344645  1.312499  0.184792 -0.185641
  1H   1pz       -0.004342 -0.003073 -0.001876 -0.002260 -0.000290  0.000481
  1H   1px        0.012861  0.009250  0.008939 -0.002910 -0.000492 -0.005254
  1H   1py        0.008051  0.006127  0.005668 -0.001861  0.006182  0.002740
  1H   2pz        0.093981  0.067002  0.111219  0.119535 -0.029991  0.029585
  1H   2px       -0.297653 -0.203937 -0.237706 -0.321489  0.016921 -0.017700
  1H   2py       -0.178783 -0.145436 -0.151125 -0.205468  0.007349 -0.011816
  1H   1dz2      -0.009376 -0.006730 -0.010396 -0.012716  0.009649 -0.010218
  1H   1dxz      -0.006266 -0.003589 -0.006440 -0.019312  0.001120 -0.006563
  1H   1dyz      -0.003087 -0.003488 -0.004143 -0.012287  0.006634  0.001629
  1H   1dx2y2     0.010468  0.001478  0.006029  0.015724 -0.013523 -0.004047
  1H   1dxy       0.014892  0.013434  0.012875  0.033825 -0.005128  0.013990
  2H   1s        -0.011535  0.108095 -0.098871 -0.003973 -0.016262 -0.055563
  2H   2s         0.049197 -0.449077 -0.300163  1.100757 -0.544054 -1.865204
  2H   3s         0.298820 -2.786017  1.356798  1.303422  0.076547  0.252960
  2H   1pz       -0.000554  0.005205 -0.001817 -0.002090 -0.000196 -0.000720
  2H   1px        0.000192 -0.000790  0.000461 -0.000098 -0.006861  0.002155
  2H   1py       -0.001965  0.018594 -0.010691  0.003408 -0.001439 -0.003853
  2H   2pz        0.012393 -0.114221  0.110953  0.116942 -0.011300 -0.038519
  2H   2px       -0.016539  0.017045 -0.012451 -0.017246 -0.002037  0.001874
  2H   2py        0.046007 -0.427653  0.284863  0.382228 -0.007947 -0.026780
  2H   1dz2      -0.001278  0.011656 -0.010558 -0.012765  0.003960  0.013461
  2H   1dxz      -0.001264  0.000264 -0.000375 -0.000975 -0.006728  0.002260
  2H   1dyz       0.000897 -0.008442  0.007675  0.022701 -0.002072 -0.005932
  2H   1dx2y2    -0.001989  0.022174 -0.014371 -0.037212  0.003015  0.014667
  2H   1dxy      -0.005457  0.001419 -0.001257 -0.003307  0.013524 -0.002537
  3H   1s         0.099141 -0.044501 -0.098568 -0.004648  0.056287  0.013612
  3H   2s        -0.403558  0.175420 -0.306703  1.089333  1.889422  0.463376
  3H   3s        -2.552202  1.134483  1.352008  1.321059 -0.254128 -0.057165
  3H   1pz        0.004832 -0.002084 -0.001863 -0.002389  0.000439  0.000199
  3H   1px        0.015308 -0.006769 -0.009461  0.002955  0.002718  0.004206
  3H   1py       -0.007785  0.003770  0.004883 -0.001740 -0.003593  0.006002
  3H   2pz       -0.103774  0.045335  0.110956  0.119729  0.041796  0.008922
  3H   2px       -0.348450  0.146518  0.251161  0.339920  0.025527  0.005794
  3H   2py        0.173026 -0.092973 -0.129892 -0.174679 -0.009930 -0.005549
  3H   1dz2       0.010502 -0.004682 -0.010459 -0.012790 -0.013654 -0.003412
  3H   1dxz      -0.006971  0.002407  0.006748  0.020250  0.004758  0.004455
  3H   1dyz       0.003017 -0.002529 -0.003509 -0.010452 -0.004318  0.005389
  3H   1dx2y2    -0.013338  0.001057  0.008227  0.021583  0.011227 -0.008957
  3H   1dxy       0.015009 -0.010083 -0.011627 -0.030557 -0.010135 -0.010780
                     24        25        26        27        28        29   
                   0.57334   0.67196   0.67223   0.78186   0.93466   0.93485
                   0.00000   0.00000   0.00000   0.00000   0.00000   0.00000
                  --------  --------  --------  --------  --------  --------
  0P   1s         0.000127 -0.000083 -0.000052 -0.017574 -0.000077  0.000271
  0P   2s         0.000951 -0.000826 -0.000460 -0.128666 -0.000532  0.001816
  0P   3s         0.001886 -0.002544 -0.001216 -0.243381 -0.000825  0.002792
  0P   4s         0.000455 -0.001598 -0.000635 -0.015529  0.000220 -0.000422
  0P   5s        -0.004281  0.009814  0.004264  0.182187 -0.001707 -0.000596
  0P   1pz        0.000026 -0.000418  0.000181 -0.037475 -0.000896  0.001612
  0P   1px       -0.000166  0.033941 -0.182649  0.000041  0.854706  0.003219
  0P   1py       -0.000165  0.183891  0.033849  0.000414  0.002075 -0.849687
  0P   2pz        0.000054 -0.000683  0.000609 -0.244128 -0.002281  0.002389
  0P   2px        0.000488  0.074176 -0.398910 -0.000249  2.041509  0.007652
  0P   2py       -0.000327  0.401752  0.074039  0.001384  0.005085 -2.030672
  0P   3pz       -0.000053  0.000380  0.000104 -0.060199  0.000033 -0.001840
  0P   3px        0.000359 -0.010633  0.057626 -0.000168 -0.182607 -0.000803
  0P   3py        0.000082 -0.057789 -0.010573  0.000143 -0.000361  0.180445
  0P   4pz        0.000957 -0.001563 -0.000790 -0.513678 -0.001410 -0.000073
  0P   4px        0.004458 -0.023836  0.128133 -0.000553  1.002375  0.004818
  0P   4py        0.000361 -0.128050 -0.023930 -0.000184  0.003154 -0.998567
  0P   1dz2       0.000261 -0.000095 -0.002398  0.589445  0.001584 -0.002605
  0P   1dxz      -0.000949 -0.136193  0.733620  0.001754 -0.512091  0.001240
  0P   1dyz       0.000227 -0.735419 -0.134938 -0.000727 -0.005249  0.511599
  0P   1dx2y2    -0.001000  0.526405  0.172884 -0.000613 -0.295615 -2.236780
  0P   1dxy       0.004152  0.171267 -0.526718 -0.000302  2.244902 -0.289777
  0P   2dz2       0.000311 -0.000181 -0.000241  0.039083 -0.000643  0.002101
  0P   2dxz      -0.000840 -0.005586  0.030355  0.000168  0.298156 -0.000240
  0P   2dyz      -0.000098 -0.028027 -0.005241  0.000514  0.001722 -0.303469
  0P   2dx2y2    -0.000060 -0.006922 -0.001951 -0.000156  0.027772  0.209665
  0P   2dxy       0.000433 -0.002159  0.006416  0.000089 -0.211595  0.025650
  0P   1f0        0.000006  0.000096 -0.000231 -0.168080 -0.000747 -0.001416
  0P   1f+1       0.000351 -0.015290  0.082278 -0.000521  0.057107 -0.000115
  0P   1f-1       0.000040 -0.082137 -0.015084 -0.000331  0.000307 -0.058717
  0P   1f+2       0.000128  0.016447  0.005676 -0.000264  0.006273  0.041990
  0P   1f-2       0.000553  0.005377 -0.017757 -0.000206 -0.043028  0.004952
  0P   1f+3       0.015472  0.000231 -0.000334  0.007157  0.000661 -0.000498
  0P   1f-3       0.001802  0.000309  0.000146 -0.052891  0.000495 -0.000552
  1H   1s        -0.000183  0.016272 -0.017182 -0.010392 -0.008469  0.005184
  1H   2s        -0.004243 -0.428282  0.458047  0.134522 -1.564659  0.985947
  1H   3s         0.001402  0.009983 -0.016307 -0.089361 -1.063351  0.670698
  1H   1pz        0.000164 -0.033244  0.035692 -0.040960  0.032712 -0.020799
  1H   1px        0.017636  0.000585  0.018991 -0.009853 -0.026629 -0.006494
  1H   1py       -0.027548 -0.021142 -0.008184 -0.006059  0.006282  0.032532
  1H   2pz       -0.001230  0.522682 -0.560177  0.732221 -0.650987  0.410304
  1H   2px       -0.339010  0.100204 -0.472120  0.116925  1.095733 -0.207177
  1H   2py        0.528800  0.467403  0.075446  0.073078  0.214917 -0.892943
  1H   1dz2      -0.000090  0.005902 -0.006280  0.009253  0.032770 -0.020802
  1H   1dxz      -0.004060  0.000010  0.005416  0.001132  0.011459 -0.007805
  1H   1dyz       0.006368 -0.006163 -0.002164  0.000609  0.008204 -0.003519
  1H   1dx2y2     0.009937  0.001951  0.011895  0.003735 -0.026003 -0.011950
  1H   1dxy      -0.004637 -0.014299  0.008561  0.007838 -0.021914  0.027118
  2H   1s         0.000101 -0.023469 -0.005467 -0.009982 -0.000273 -0.010467
  2H   2s        -0.000315  0.609908  0.140727  0.135187 -0.077467 -1.843150
  2H   3s         0.001044 -0.019903 -0.005527 -0.089234 -0.051338 -1.255068
  2H   1pz        0.000099  0.047460  0.010904 -0.040880  0.001705  0.038700
  2H   1px       -0.032767 -0.004953  0.024486 -0.000513 -0.036504  0.000615
  2H   1py       -0.001464 -0.015684 -0.002493  0.011457 -0.000675  0.022644
  2H   2pz       -0.001193 -0.747412 -0.172167  0.732243 -0.033211 -0.767301
  2H   2px        0.627718  0.083177 -0.459042  0.007042  0.761069  0.021152
  2H   2py        0.027498  0.482068  0.089912 -0.135193 -0.017232 -1.227232
  2H   1dz2      -0.000017 -0.008178 -0.001907  0.008997  0.001645  0.038787
  2H   1dxz       0.007539 -0.001302  0.006926  0.000045 -0.001437  0.000859
  2H   1dyz       0.000323 -0.004921 -0.000813 -0.001249 -0.000783 -0.016134
  2H   1dx2y2    -0.000991 -0.017366 -0.003004 -0.008674 -0.000868  0.036136
  2H   1dxy       0.010930  0.000795 -0.010552 -0.000766  0.026465  0.002198
  3H   1s         0.000468  0.006733  0.022370 -0.010619  0.008442  0.004785
  3H   2s         0.005143 -0.183398 -0.599455  0.134445  1.644606  0.856551
  3H   3s         0.000366  0.002508  0.018641 -0.088772  1.115754  0.583531
  3H   1pz       -0.000086 -0.014268 -0.046620 -0.040973 -0.034212 -0.017889
  3H   1px        0.015219 -0.006974  0.016676  0.010155 -0.025691  0.005765
  3H   1py        0.029149 -0.023358 -0.000452 -0.005190 -0.005798  0.033688
  3H   2pz        0.001219  0.224466  0.733825  0.732971  0.679358  0.354304
  3H   2px       -0.291150  0.077884 -0.475749 -0.120695  1.133143  0.195272
  3H   2py       -0.557615  0.461621  0.095074  0.061944 -0.191308 -0.859994
  3H   1dz2       0.000032  0.002558  0.008196  0.009234 -0.034539 -0.018072
  3H   1dxz      -0.003475 -0.001779  0.005027 -0.001118  0.012548  0.007078
  3H   1dyz      -0.006724 -0.006630 -0.000300  0.000606 -0.007334 -0.002206
  3H   1dx2y2    -0.008979  0.005286 -0.012179  0.005017  0.028873 -0.009333
  3H   1dxy      -0.006333  0.010111  0.012029 -0.007097 -0.019568 -0.027276
                     30        31        32        33        34        35   
                   0.99517   0.99549   1.00989   1.13717   1.13791   1.27073
                   0.00000   0.00000   0.00000   0.00000   0.00000   0.00000
                  --------  --------  --------  --------  --------  --------
  0P   1s         0.001136 -0.000702  0.087214 -0.000019 -0.000485 -0.030299
  0P   2s         0.008129 -0.004924  0.628024  0.000020 -0.003155 -0.285723
  0P   3s         0.014249 -0.008328  1.114832  0.000610 -0.004084 -0.720417
  0P   4s        -0.001636  0.001416 -0.126273  0.000834  0.001706 -0.279384
  0P   5s         0.030387 -0.018839  2.707125 -0.002383 -0.005119 -0.803426
  0P   1pz       -0.003691  0.000884 -0.247141  0.000525  0.001689  0.143677
  0P   1px        0.523779  0.151301 -0.005687  0.124760 -0.037157 -0.000356
  0P   1py       -0.152401  0.525245  0.008209 -0.035481 -0.118124  0.002240
  0P   2pz       -0.009209  0.002660 -0.615021  0.000212  0.003071  0.384416
  0P   2px        1.352443  0.390948 -0.014641  0.375368 -0.111743 -0.000600
  0P   2py       -0.393692  1.357255  0.020718 -0.108148 -0.358928  0.005788
  0P   3pz        0.000386  0.000382  0.024552 -0.001054 -0.001295  0.014783
  0P   3px       -0.054964 -0.015690  0.000596  0.017476 -0.005058  0.000298
  0P   3py        0.015868 -0.054043 -0.001087 -0.005889 -0.018566 -0.000062
  0P   4pz       -0.006138  0.001879 -0.332893 -0.000641 -0.000202 -0.034470
  0P   4px        1.466073  0.425990 -0.015256  0.602054 -0.181682  0.000135
  0P   4py       -0.427565  1.472005  0.019880 -0.177806 -0.595261  0.003882
  0P   1dz2      -0.011717  0.010112 -1.140773  0.003875 -0.000213 -0.509772
  0P   1dxz      -0.793923 -0.230433  0.005149 -1.205774  0.362301 -0.001731
  0P   1dyz       0.231700 -0.799629 -0.010486  0.361578  1.200206 -0.004424
  0P   1dx2y2    -0.278728  0.635352  0.014512  0.206621  0.464014  0.001046
  0P   1dxy       0.632945  0.277285 -0.004806 -0.454061  0.210805 -0.000558
  0P   2dz2       0.009242 -0.006146  0.695441 -0.002956  0.002555  0.974454
  0P   2dxz      -0.204411 -0.059819  0.003714  1.002425 -0.301107  0.003776
  0P   2dyz       0.059189 -0.199807 -0.002486 -0.302988 -1.003000  0.001090
  0P   2dx2y2     0.229962 -0.522190 -0.006914 -0.158776 -0.352415  0.001802
  0P   2dxy      -0.523789 -0.232047  0.004218  0.351778 -0.161001  0.000176
  0P   1f0        0.000418  0.000620  0.028637  0.000266  0.000425  0.323038
  0P   1f+1      -0.037065 -0.010501  0.000507 -0.141720  0.042527  0.000563
  0P   1f-1       0.010910 -0.036382 -0.000634  0.042739  0.142014  0.000750
  0P   1f+2       0.027562 -0.062103 -0.001207  0.011001  0.025630 -0.001296
  0P   1f-2      -0.061794 -0.027028  0.000482 -0.024259  0.011021  0.000100
  0P   1f+3       0.000708  0.000416  0.005727 -0.001066 -0.000108  0.020406
  0P   1f-3      -0.000826  0.001122 -0.044757  0.000046  0.000070 -0.154867
  1H   1s        -0.036501 -0.040057 -0.096328 -0.018671  0.021504  0.127248
  1H   2s        -0.690914 -0.775685 -0.609465 -0.182390  0.204795 -0.012020
  1H   3s        -0.927374 -1.042482 -0.900729 -0.308156  0.352879  0.425997
  1H   1pz       -0.015893 -0.018142 -0.002292  0.009832 -0.011354 -0.030491
  1H   1px        0.010012 -0.036057 -0.024895  0.005468 -0.001291  0.054295
  1H   1py       -0.045839  0.022818 -0.015010 -0.002343 -0.005687  0.034650
  1H   2pz        0.062290  0.075175 -0.247434  0.133799 -0.155553  0.206509
  1H   2px        0.228011  0.908248  0.739606 -0.072394 -0.375181 -0.546652
  1H   2py        0.869610 -0.054691  0.460379  0.461049  0.196314 -0.349909
  1H   1dz2       0.001368  0.001767 -0.001206  0.012575 -0.014507 -0.006236
  1H   1dxz       0.010950  0.013750  0.020951 -0.027302  0.024786  0.015917
  1H   1dyz       0.008860  0.007019  0.013256 -0.009787  0.022223  0.010169
  1H   1dx2y2    -0.031043  0.011792 -0.004861  0.014539  0.026728 -0.000534
  1H   1dxy      -0.005762 -0.028140 -0.011817 -0.025275  0.008957 -0.001209
  2H   1s        -0.018402  0.051819 -0.095963 -0.009091 -0.025752  0.127513
  2H   2s        -0.340975  0.990723 -0.591343 -0.088010 -0.249702 -0.005543
  2H   3s        -0.458035  1.329836 -0.882913 -0.151166 -0.432330  0.431443
  2H   1pz       -0.007967  0.022755 -0.002200  0.004994  0.014037 -0.030326
  2H   1px        0.055109  0.019915 -0.001805  0.006242 -0.001945  0.002814
  2H   1py        0.010585 -0.022324  0.028642 -0.001429 -0.005497 -0.064661
  2H   2pz        0.031351 -0.091834 -0.243591  0.068739  0.197059  0.204774
  2H   2px       -0.751910 -0.302667  0.044833 -0.527410  0.198863 -0.029020
  2H   2py       -0.361179  0.931099 -0.856300 -0.114161 -0.246227  0.654874
  2H   1dz2       0.000733 -0.002207 -0.001340  0.006282  0.017837 -0.006390
  2H   1dxz      -0.001871 -0.001543  0.001052 -0.008646  0.001026  0.000815
  2H   1dyz      -0.007074  0.019618 -0.024352  0.014092  0.041284 -0.018919
  2H   1dx2y2     0.006215 -0.027089  0.012350  0.010885  0.022726  0.001055
  2H   1dxy       0.033124  0.008682  0.000765 -0.028374  0.012415  0.000022
  3H   1s         0.051972 -0.009596 -0.097225  0.027989  0.004871  0.127329
  3H   2s         1.009192 -0.201683 -0.625943  0.271613  0.049534 -0.013192
  3H   3s         1.354904 -0.268478 -0.922286  0.460559  0.084428  0.426173
  3H   1pz        0.023684 -0.004678 -0.002717 -0.014760 -0.002789 -0.030423
  3H   1px       -0.015433  0.030678  0.026224  0.005264 -0.001992 -0.057149
  3H   1py        0.020845  0.048885 -0.013324 -0.001269 -0.006064  0.029671
  3H   2pz       -0.102489  0.021361 -0.243331 -0.201972 -0.038116  0.205155
  3H   2px        0.776432 -0.534648 -0.788486  0.196209  0.300592  0.574895
  3H   2py       -0.579787 -0.618089  0.406636 -0.222359  0.469109 -0.300109
  3H   1dz2      -0.002276  0.000634 -0.001034 -0.018719 -0.003497 -0.006072
  3H   1dxz       0.017491 -0.004366 -0.022281 -0.038659 -0.003462 -0.016889
  3H   1dyz      -0.009542 -0.000267  0.011516  0.018350  0.010955  0.008741
  3H   1dx2y2     0.021018  0.024420 -0.007484  0.009603  0.027982 -0.000856
  3H   1dxy      -0.018131  0.023780  0.011040 -0.023942  0.013766  0.001117
                     36        37        38        39        40        41   
                   1.38256   1.41270   1.41291   1.46772   1.46874   1.55403
                   0.00000   0.00000   0.00000   0.00000   0.00000   0.00000
                  --------  --------  --------  --------  --------  --------
  0P   1s        -0.003775 -0.000018 -0.000091  0.000066 -0.000039 -0.000122
  0P   2s        -0.037426 -0.000064 -0.000876  0.000249  0.000047  0.004070
  0P   3s        -0.093984  0.000131 -0.002464 -0.000507  0.001274  0.025839
  0P   4s        -0.040558 -0.000027 -0.000667 -0.000567  0.000701  0.010343
  0P   5s        -0.304979  0.003787 -0.003298 -0.002944  0.009226  0.146342
  0P   1pz       -0.100262 -0.000180  0.000741  0.003196  0.000946 -0.007781
  0P   1px       -0.000384  0.154574 -0.009763  0.021503 -0.213126  0.004626
  0P   1py        0.001210 -0.009607 -0.154576  0.216913  0.020529 -0.025174
  0P   2pz        0.034146 -0.000836  0.001180  0.003567  0.001952 -0.024158
  0P   2px        0.000112  0.469850 -0.028727  0.131638 -1.315162 -0.051102
  0P   2py        0.007608 -0.029749 -0.460274  1.327694  0.129714  0.219411
  0P   3pz        0.250225 -0.000434 -0.000555 -0.004543 -0.000531 -0.003939
  0P   3px        0.000975  0.097921 -0.005375  0.073234 -0.736025 -0.061161
  0P   3py        0.004096 -0.006789 -0.088512  0.738797  0.073829  0.276041
  0P   4pz        0.420546  0.000595 -0.001536 -0.003731  0.000555 -0.019696
  0P   4px        0.002392 -0.484328  0.034545  0.140655 -1.416073 -0.110995
  0P   4py        0.012022  0.033697  0.501400  1.419973  0.142149  0.495096
  0P   1dz2      -0.532859 -0.002106  0.003002  0.005018 -0.003046 -0.037391
  0P   1dxz      -0.002433  0.068166 -0.005594 -0.028243  0.260669  0.186442
  0P   1dyz      -0.000677 -0.004107 -0.072383 -0.272287 -0.024889 -0.858926
  0P   1dx2y2     0.014166  0.254822  1.263373  1.272031  0.303237  0.900316
  0P   1dxy       0.004710 -1.245463  0.256777  0.299029 -1.268664 -0.076845
  0P   2dz2       0.263831  0.001566  0.000270 -0.001676 -0.001411 -0.007520
  0P   2dxz       0.000935 -0.338531  0.022863 -0.038679  0.381770 -0.037431
  0P   2dyz      -0.001462  0.021161  0.333946 -0.382574 -0.036759  0.176120
  0P   2dx2y2    -0.001730 -0.181604 -0.891065  0.454309  0.104725 -0.120178
  0P   2dxy      -0.001148  0.892185 -0.179099  0.106667 -0.447013  0.008743
  0P   1f0       -0.908668 -0.002697  0.004374  0.005448 -0.001908  0.014720
  0P   1f+1      -0.004210  0.645643 -0.045207 -0.075738  0.774846 -0.105631
  0P   1f-1      -0.009326 -0.043355 -0.648982 -0.763607 -0.078013  0.505966
  0P   1f+2      -0.000248 -0.045797 -0.231411 -0.397021 -0.090916 -1.125992
  0P   1f-2      -0.002785  0.223045 -0.047444 -0.094180  0.385507  0.093502
  0P   1f+3       0.064169 -0.004924  0.002087 -0.000295 -0.001903  0.008386
  0P   1f-3      -0.480960 -0.002658  0.004247  0.004581 -0.003616 -0.040699
  1H   1s         0.046138 -0.111757  0.082877 -0.007357  0.009233  0.041055
  1H   2s        -0.084186  0.482820 -0.369888 -1.212882  1.530412 -0.452171
  1H   3s         0.161015 -0.116486  0.077558 -0.681044  0.858855 -0.087235
  1H   1pz        0.018954  0.005278 -0.003913  0.026154 -0.033731 -0.020330
  1H   1px        0.020512 -0.066723  0.048667 -0.048677  0.074470  0.011577
  1H   1py        0.013068 -0.042943  0.030954 -0.045735  0.036203 -0.032802
  1H   2pz       -0.436723  0.127318 -0.094922 -0.419583  0.540889  0.200530
  1H   2px       -0.228472  0.370974 -0.514925  0.640527 -0.987822 -0.047972
  1H   2py       -0.143692  0.499923  0.027746  0.607191 -0.474091  0.443501
  1H   1dz2       0.027800  0.004413 -0.003345 -0.009518  0.012343  0.011281
  1H   1dxz       0.017798 -0.015255 -0.013395 -0.009190 -0.009697 -0.013727
  1H   1dyz       0.011526  0.015857  0.026878  0.016674  0.011902  0.020592
  1H   1dx2y2     0.008238  0.018621  0.012611 -0.002172  0.001033  0.008296
  1H   1dxy       0.017578  0.006869 -0.017410 -0.002505  0.003826 -0.000984
  2H   1s         0.045592 -0.015483 -0.138980  0.010522  0.001568 -0.101315
  2H   2s        -0.060305  0.068554  0.624308  1.949945  0.277541  1.056450
  2H   3s         0.173914 -0.016189 -0.130235  1.089344  0.154788  0.148424
  2H   1pz        0.018511  0.000805  0.006260 -0.041658 -0.006023  0.059471
  2H   1px        0.001044 -0.000834 -0.004151  0.002376  0.015509  0.007204
  2H   1py       -0.024529  0.010887  0.096843 -0.104653 -0.014191 -0.021256
  2H   2pz       -0.426196  0.016634  0.164496  0.674851  0.096871 -0.618322
  2H   2px       -0.012049 -0.360643  0.071754 -0.030339 -0.214741 -0.092900
  2H   2py        0.278127 -0.095305 -0.699187  1.387756  0.186655  0.438759
  2H   1dz2       0.028126  0.000638  0.005059  0.014453  0.002299 -0.028083
  2H   1dxz       0.001113 -0.036457  0.003909  0.003401 -0.024275 -0.004251
  2H   1dyz      -0.020796 -0.001038  0.005651  0.002526 -0.000853 -0.005816
  2H   1dx2y2    -0.019503 -0.000024 -0.017420 -0.005097 -0.000807  0.012733
  2H   1dxy      -0.001718 -0.022864  0.000966 -0.000639  0.001250 -0.000307
  3H   1s         0.045713  0.128211  0.055843 -0.004432 -0.009699  0.071797
  3H   2s        -0.078407 -0.556792 -0.246304 -0.728283 -1.819594 -0.791518
  3H   3s         0.162216  0.131071  0.053698 -0.409011 -1.018838 -0.144050
  3H   1pz        0.019031 -0.005885 -0.002881  0.015447  0.039674 -0.037706
  3H   1px       -0.021454 -0.080093 -0.034899  0.028410  0.089072  0.000182
  3H   1py        0.011199  0.041815  0.017731 -0.031079 -0.039643 -0.031520
  3H   2pz       -0.437187 -0.146895 -0.061125 -0.248362 -0.636979  0.378190
  3H   2px        0.240034  0.516198  0.411654 -0.372423 -1.181834 -0.153766
  3H   2py       -0.122413 -0.437058  0.173281  0.414612  0.525728  0.450257
  3H   1dz2       0.027930 -0.004741 -0.002296 -0.005826 -0.014450  0.019805
  3H   1dxz      -0.018601 -0.011146  0.013797  0.009774 -0.006195  0.011065
  3H   1dyz       0.010050 -0.010490  0.030846  0.020259 -0.006928  0.017047
  3H   1dx2y2     0.011247 -0.017041  0.013649 -0.002015 -0.002428  0.008827
  3H   1dxy      -0.015799  0.007784  0.018135  0.000971  0.004170 -0.001050
                     42        43        44        45        46        47   
                   1.55517   1.56566   1.57998   1.80755   2.17182   2.17287
                   0.00000   0.00000   0.00000   0.00000   0.00000   0.00000
                  --------  --------  --------  --------  --------  --------
  0P   1s         0.000059 -0.000017  0.000963 -0.029244 -0.000040  0.000163
  0P   2s         0.002225 -0.000536 -0.162436 -0.092069 -0.000336  0.001260
  0P   3s         0.010670 -0.002530 -0.923353  0.270805 -0.000725  0.002417
  0P   4s         0.003555 -0.000705 -0.345548  0.351143  0.000015 -0.000228
  0P   5s         0.056018 -0.014616 -5.154941  1.721227 -0.002908  0.008134
  0P   1pz       -0.002439  0.000736  0.107957 -1.604892  0.003435 -0.002852
  0P   1px        0.023194  0.002079  0.001482 -0.003543 -1.721382 -0.167729
  0P   1py        0.005449  0.001455 -0.002742  0.008549  0.169032 -1.711052
  0P   2pz       -0.008301  0.002267  0.643523 -2.351069  0.006309 -0.004497
  0P   2px       -0.232300  0.020306 -0.002616 -0.005500 -3.207271 -0.312514
  0P   2py       -0.047831  0.005710  0.001203  0.016944  0.315083 -3.186601
  0P   3pz       -0.001931  0.000357  0.357648  1.826178 -0.002776  0.002981
  0P   3px       -0.283359  0.014243 -0.006253  0.003701  1.352905  0.131820
  0P   3py       -0.060040  0.001752  0.008150 -0.005287 -0.132639  1.346842
  0P   4pz       -0.007154  0.002009  0.792780  0.348257  0.000397  0.000223
  0P   4px       -0.515937  0.035586 -0.009405 -0.000087 -0.184312 -0.018129
  0P   4py       -0.109267  0.007557  0.008564  0.002823  0.018322 -0.181025
  0P   1dz2      -0.016513  0.004131  1.307199 -0.247822 -0.000758 -0.002305
  0P   1dxz       0.865530 -0.048910  0.017388 -0.001503  0.575386  0.057937
  0P   1dyz       0.188815 -0.012194 -0.017765 -0.000932 -0.054601  0.571952
  0P   1dx2y2    -0.071002  0.006111  0.018999  0.005382  0.279736 -1.180453
  0P   1dxy      -0.920041  0.062234 -0.015196  0.000354 -1.187078 -0.276614
  0P   2dz2      -0.002607  0.000353  0.255728 -0.169281 -0.000575 -0.000510
  0P   2dxz      -0.175056  0.009050 -0.001891  0.000363  0.226444  0.022579
  0P   2dyz      -0.039074  0.002916  0.003960 -0.003237 -0.021654  0.224355
  0P   2dx2y2     0.010538 -0.001384 -0.002762  0.003330  0.082027 -0.344308
  0P   2dxy       0.119816 -0.009328  0.001720  0.000144 -0.347389 -0.080208
  0P   1f0        0.008015 -0.001693 -0.597296  0.377969 -0.001980  0.000829
  0P   1f+1      -0.494702  0.021950 -0.008642  0.002630  0.431371  0.040480
  0P   1f-1      -0.111838  0.005503  0.013654 -0.004188 -0.043910  0.429065
  0P   1f+2       0.089908 -0.008422 -0.028130 -0.000550 -0.144143  0.616982
  0P   1f-2       1.129031 -0.063119  0.018082 -0.001662  0.619555  0.145834
  0P   1f+3      -0.067696 -1.297636 -0.188693  0.045770 -0.000006 -0.001372
  0P   1f-3      -0.027275 -0.169311  1.431513 -0.344786 -0.000553 -0.002015
  1H   1s        -0.098536  0.005765 -0.146703  0.048267  0.645637  0.509049
  1H   2s         1.062210 -0.065071  2.218419 -0.836042  0.981979  0.755247
  1H   3s         0.168705 -0.010636  0.973822 -0.278158  0.559436  0.436670
  1H   1pz        0.055881 -0.003066 -0.018200 -0.014566  0.009362  0.007258
  1H   1px        0.026919  0.038734  0.014012  0.009325  0.015740  0.004382
  1H   1py       -0.002645 -0.062418  0.007969  0.005922  0.001306  0.013204
  1H   2pz       -0.572965  0.029752  0.447940  0.070440  0.211135  0.164087
  1H   2px       -0.477452 -0.291167 -1.001340  0.429279 -0.788207 -0.495596
  1H   2py       -0.089675  0.502202 -0.625823  0.273315 -0.378016 -0.475141
  1H   1dz2      -0.027204  0.001442 -0.027209  0.018988 -0.054130 -0.042775
  1H   1dxz      -0.000204  0.017857 -0.030715  0.015028 -0.094269 -0.039920
  1H   1dyz       0.009023 -0.028232 -0.018387  0.009546 -0.024659 -0.072698
  1H   1dx2y2    -0.001076  0.018721  0.018333 -0.023508  0.027787  0.094410
  1H   1dxy      -0.011872 -0.008333  0.039358 -0.050707  0.151928  0.085199
  2H   1s         0.019729 -0.001487 -0.149510  0.047927  0.114775 -0.815048
  2H   2s        -0.216253  0.019895  2.234972 -0.818009  0.179785 -1.220418
  2H   3s        -0.040870  0.004900  0.973474 -0.274487  0.100717 -0.703521
  2H   1pz       -0.010013  0.000693 -0.016537 -0.014825  0.001503 -0.011403
  2H   1px        0.031500 -0.075968  0.001467  0.000453  0.011463  0.000860
  2H   1py        0.005188 -0.003418 -0.016743 -0.011468 -0.002010  0.017378
  2H   2pz        0.099370 -0.005559  0.429253  0.076420  0.038364 -0.261569
  2H   2px       -0.387153  0.612716 -0.060250  0.022674 -0.175306  0.023658
  2H   2py       -0.110943  0.035098  1.187784 -0.498090  0.149567 -1.085566
  2H   1dz2       0.005425 -0.000386 -0.027878  0.018869 -0.009607  0.068543
  2H   1dxz      -0.028009 -0.031114 -0.002027  0.000762 -0.049983 -0.001875
  2H   1dyz      -0.000896 -0.001258  0.035502 -0.017350  0.014276 -0.116518
  2H   1dx2y2    -0.000785 -0.002174 -0.042713  0.054854 -0.032352  0.186400
  2H   1dxy      -0.007183  0.020992 -0.003831  0.004785  0.059691  0.025036
  3H   1s         0.083367 -0.005217 -0.143868  0.048079 -0.761333  0.308609
  3H   2s        -0.918387  0.063434  2.183774 -0.836411 -1.157094  0.451832
  3H   3s        -0.159586  0.014109  0.966353 -0.279005 -0.658819  0.263131
  3H   1pz       -0.045382  0.002242 -0.019700 -0.014389 -0.011386  0.004649
  3H   1px        0.028345  0.032790 -0.013964 -0.009826  0.016557 -0.000774
  3H   1py        0.016001  0.065063  0.006325  0.005106 -0.004077  0.012778
  3H   2pz        0.460961 -0.020575  0.458087  0.070103 -0.246101  0.097727
  3H   2px       -0.490924 -0.240580  1.038480 -0.451715 -0.937648  0.286583
  3H   2py       -0.089017 -0.519642 -0.532403  0.234458  0.415165 -0.327581
  3H   1dz2       0.022863 -0.001336 -0.026771  0.019005  0.064795 -0.025969
  3H   1dxz      -0.004246  0.015747  0.031856 -0.015658 -0.104849  0.017117
  3H   1dyz      -0.015109  0.030028 -0.016180  0.008055  0.033912 -0.061375
  3H   1dx2y2    -0.000661 -0.016637  0.025418 -0.032245 -0.082230  0.088626
  3H   1dxy      -0.010533 -0.011466 -0.035947  0.045815  0.157683 -0.024192
                     48        49        50        51        52        53   
                   2.48124   2.54378   2.54555   2.99358   3.05060   3.05258
                   0.00000   0.00000   0.00000   0.00000   0.00000   0.00000
                  --------  --------  --------  --------  --------  --------
[...]
Auxiliary J/K fitting basis                 ... NOT available
Auxiliary Correlation fitting basis         ... NOT available
Auxiliary 'external' fitting basis          ... NOT available
Integral threshold                          ...     2.500000e-11
Primitive cut-off                           ...     2.500000e-12
Primitive pair pre-selection threshold      ...     2.500000e-12

	<< Calculating on displaced geometry  21 (of  24) >>
SHARK General Contraction Test:  (Partially) Generally contracted basis detected
   -> Decontract basis set ...  ok (NBasis(old)=76 Nbasis(new)=101 NShells(old)=30 NShells(new)=45
   -> Initialize Partial General Contraction ...  ok
   -> Checking for pre-screening matrix
   -> Pre-screening matrix found on disk - Trying to read with NShells=45
   -> Passing Pre-screening matrix on to SHARK ...ok
   -> Leaving CheckPreScreeningMatrix
   -> Pre-screening check done
   -> done initializing partial contraction
SHARK Warning: The basis set dimension has changed.
   -> Pre-screening successfully read from disk
   -> Pre-screening set to shark
   -> Redoing Shell Pair Data ... ok
----------------------
SHARK INTEGRAL PACKAGE
----------------------

Number of atoms                             ...      4
Number of basis functions                   ...    101
Number of shells                            ...     45
Maximum angular momentum                    ...      3
Integral batch strategy                     ... SHARK/LIBINT Hybrid
RI-J (if used) integral strategy            ... SPLIT-RIJ (Revised 2003 algorithm where possible)
Printlevel                                  ...      2
Contraction scheme used                     ... PARTIAL GENERAL contraction
Coulomb Range Separation                    ... NOT USED
Exchange Range Separation                   ... NOT USED
Finite Nucleus Model                        ... NOT USED
Auxiliary Coulomb fitting basis             ... NOT available
Auxiliary J/K fitting basis                 ... NOT available
Auxiliary Correlation fitting basis         ... NOT available
Auxiliary 'external' fitting basis          ... NOT available
Integral threshold                          ...     2.500000e-11
Primitive cut-off                           ...     2.500000e-12
Primitive pair pre-selection threshold      ...     2.500000e-12

	<< Calculating on displaced geometry  22 (of  24) >>
SHARK General Contraction Test:  (Partially) Generally contracted basis detected
   -> Decontract basis set ...  ok (NBasis(old)=76 Nbasis(new)=101 NShells(old)=30 NShells(new)=45
   -> Initialize Partial General Contraction ...  ok
   -> Checking for pre-screening matrix
   -> Pre-screening matrix found on disk - Trying to read with NShells=45
   -> Passing Pre-screening matrix on to SHARK ...ok
   -> Leaving CheckPreScreeningMatrix
   -> Pre-screening check done
   -> done initializing partial contraction
SHARK Warning: The basis set dimension has changed.
   -> Pre-screening successfully read from disk
   -> Pre-screening set to shark
   -> Redoing Shell Pair Data ... ok
----------------------
SHARK INTEGRAL PACKAGE
----------------------

Number of atoms                             ...      4
Number of basis functions                   ...    101
Number of shells                            ...     45
Maximum angular momentum                    ...      3
Integral batch strategy                     ... SHARK/LIBINT Hybrid
RI-J (if used) integral strategy            ... SPLIT-RIJ (Revised 2003 algorithm where possible)
Printlevel                                  ...      2
Contraction scheme used                     ... PARTIAL GENERAL contraction
Coulomb Range Separation                    ... NOT USED
Exchange Range Separation                   ... NOT USED
Finite Nucleus Model                        ... NOT USED
Auxiliary Coulomb fitting basis             ... NOT available
Auxiliary J/K fitting basis                 ... NOT available
Auxiliary Correlation fitting basis         ... NOT available
Auxiliary 'external' fitting basis          ... NOT available
Integral threshold                          ...     2.500000e-11
Primitive cut-off                           ...     2.500000e-12
Primitive pair pre-selection threshold      ...     2.500000e-12

	<< Calculating on displaced geometry  23 (of  24) >>
SHARK General Contraction Test:  (Partially) Generally contracted basis detected
   -> Decontract basis set ...  ok (NBasis(old)=76 Nbasis(new)=101 NShells(old)=30 NShells(new)=45
   -> Initialize Partial General Contraction ...  ok
   -> Checking for pre-screening matrix
   -> Pre-screening matrix found on disk - Trying to read with NShells=45
   -> Passing Pre-screening matrix on to SHARK ...ok
   -> Leaving CheckPreScreeningMatrix
   -> Pre-screening check done
   -> done initializing partial contraction
SHARK Warning: The basis set dimension has changed.
   -> Pre-screening successfully read from disk
   -> Pre-screening set to shark
   -> Redoing Shell Pair Data ... ok
----------------------
SHARK INTEGRAL PACKAGE
----------------------

Number of atoms                             ...      4
Number of basis functions                   ...    101
Number of shells                            ...     45
Maximum angular momentum                    ...      3
Integral batch strategy                     ... SHARK/LIBINT Hybrid
RI-J (if used) integral strategy            ... SPLIT-RIJ (Revised 2003 algorithm where possible)
Printlevel                                  ...      2
Contraction scheme used                     ... PARTIAL GENERAL contraction
Coulomb Range Separation                    ... NOT USED
Exchange Range Separation                   ... NOT USED
Finite Nucleus Model                        ... NOT USED
Auxiliary Coulomb fitting basis             ... NOT available
Auxiliary J/K fitting basis                 ... NOT available
Auxiliary Correlation fitting basis         ... NOT available
Auxiliary 'external' fitting basis          ... NOT available
Integral threshold                          ...     2.500000e-11
Primitive cut-off                           ...     2.500000e-12
Primitive pair pre-selection threshold      ...     2.500000e-12

	<< Calculating on displaced geometry  24 (of  24) >>
SHARK General Contraction Test:  (Partially) Generally contracted basis detected
   -> Decontract basis set ...  ok (NBasis(old)=76 Nbasis(new)=101 NShells(old)=30 NShells(new)=45
   -> Initialize Partial General Contraction ...  ok
   -> Checking for pre-screening matrix
   -> Pre-screening matrix found on disk - Trying to read with NShells=45
   -> Passing Pre-screening matrix on to SHARK ...ok
   -> Leaving CheckPreScreeningMatrix
   -> Pre-screening check done
   -> done initializing partial contraction
SHARK Warning: The basis set dimension has changed.
   -> Pre-screening successfully read from disk
   -> Pre-screening set to shark
   -> Redoing Shell Pair Data ... ok
----------------------
SHARK INTEGRAL PACKAGE
----------------------

Number of atoms                             ...      4
Number of basis functions                   ...    101
Number of shells                            ...     45
Maximum angular momentum                    ...      3
Integral batch strategy                     ... SHARK/LIBINT Hybrid
RI-J (if used) integral strategy            ... SPLIT-RIJ (Revised 2003 algorithm where possible)
Printlevel                                  ...      2
Contraction scheme used                     ... PARTIAL GENERAL contraction
Coulomb Range Separation                    ... NOT USED
Exchange Range Separation                   ... NOT USED
Finite Nucleus Model                        ... NOT USED
Auxiliary Coulomb fitting basis             ... NOT available
Auxiliary J/K fitting basis                 ... NOT available
Auxiliary Correlation fitting basis         ... NOT available
Auxiliary 'external' fitting basis          ... NOT available
Integral threshold                          ...     2.500000e-11
Primitive cut-off                           ...     2.500000e-12
Primitive pair pre-selection threshold      ...     2.500000e-12


-----------------------
VIBRATIONAL FREQUENCIES
-----------------------

Scaling factor for frequencies =  1.000000000 (already applied!)

   0:         0.00 cm**-1
   1:         0.00 cm**-1
   2:         0.00 cm**-1
   3:         0.00 cm**-1
   4:         0.00 cm**-1
   5:         0.00 cm**-1
   6:       763.26 cm**-1
   7:      1071.88 cm**-1
   8:      1086.08 cm**-1
   9:      2562.93 cm**-1
  10:      2636.53 cm**-1
  11:      2636.86 cm**-1


------------
NORMAL MODES
------------

These modes are the cartesian displacements weighted by the diagonal matrix
M(i,i)=1/sqrt(m[i]) where m[i] is the mass of the displaced atom
Thus, these vectors are normalized but *not* orthogonal

                  0          1          2          3          4          5    
      0       0.000000   0.000000   0.000000   0.000000   0.000000   0.000000
      1       0.000000   0.000000   0.000000   0.000000   0.000000   0.000000
      2       0.000000   0.000000   0.000000   0.000000   0.000000   0.000000
      3       0.000000   0.000000   0.000000   0.000000   0.000000   0.000000
      4       0.000000   0.000000   0.000000   0.000000   0.000000   0.000000
      5       0.000000   0.000000   0.000000   0.000000   0.000000   0.000000
      6       0.000000   0.000000   0.000000   0.000000   0.000000   0.000000
      7       0.000000   0.000000   0.000000   0.000000   0.000000   0.000000
      8       0.000000   0.000000   0.000000   0.000000   0.000000   0.000000
      9       0.000000   0.000000   0.000000   0.000000   0.000000   0.000000
     10       0.000000   0.000000   0.000000   0.000000   0.000000   0.000000
     11       0.000000   0.000000   0.000000   0.000000   0.000000   0.000000
                  6          7          8          9         10         11    
      0      -0.000074   0.001437  -0.033958  -0.000065   0.033646   0.018917
      1       0.000000  -0.033833  -0.001486  -0.000047  -0.019010   0.033714
      2      -0.054217  -0.000015   0.000022   0.013872  -0.000039  -0.000012
      3       0.131494  -0.406372   0.145480   0.472932  -0.314154  -0.581491
      4       0.083304   0.549202  -0.375821   0.301349  -0.194294  -0.376189
      5       0.555228  -0.095089  -0.165745  -0.143469   0.102765   0.192922
      6       0.007432   0.005893   0.787047   0.025222  -0.022342   0.027746
      7      -0.154445  -0.093955   0.036393  -0.557982   0.415027  -0.667566
      8       0.555267   0.191221  -0.001012  -0.141691   0.115345  -0.185342
      9      -0.136665   0.356317   0.110943  -0.496167  -0.697379  -0.027544
     10       0.071133   0.584386   0.385103   0.258076   0.363409   0.007774
     11       0.555504  -0.095674   0.166092  -0.141094  -0.216907  -0.007208


-----------
IR SPECTRUM
-----------

 Mode   freq       eps      Int      T**2         TX        TY        TZ
       cm**-1   L/(mol*cm) km/mol    a.u.
----------------------------------------------------------------------------
  6:    763.26   0.000240    1.21  0.000098  ( 0.000039 -0.000029  0.009897)
  7:   1071.88   0.001798    9.09  0.000523  ( 0.000971 -0.022859  0.000007)
  8:   1086.08   0.001548    7.83  0.000445  (-0.021052 -0.001308 -0.000042)
  9:   2562.93   0.002682   13.55  0.000327  ( 0.000035 -0.000047 -0.018072)
 10:   2636.53   0.010975   55.46  0.001299  (-0.031419  0.017659  0.000033)
 11:   2636.86   0.010934   55.25  0.001294  (-0.017694 -0.031319  0.000004)

* The epsilon (eps) is given for a Dirac delta lineshape.
** The dipole moment derivative (T) already includes vibrational overlap.

The first frequency considered to be a vibration is 6
The total number of vibrations considered is 6


--------------------------
THERMOCHEMISTRY AT 298.15K
--------------------------

Temperature         ... 298.15 K
Pressure            ... 1.00 atm
Total Mass          ... 34.00 AMU

Throughout the following assumptions are being made:
  (1) The electronic state is orbitally nondegenerate
      but the spin degeneracy is treated
  (2) There are no thermally accessible electronically excited states
  (3) Hindered rotations indicated by low frequency modes are not
      treated as such but are treated as vibrations and this may
      cause some error
  (4) All equations used are the standard statistical mechanics
      equations for an ideal gas
  (5) All vibrations are strictly harmonic

freq.     763.26  E(vib)   ...       0.06 
freq.    1071.88  E(vib)   ...       0.02 
freq.    1086.08  E(vib)   ...       0.02 
freq.    2562.93  E(vib)   ...       0.00 
freq.    2636.53  E(vib)   ...       0.00 
freq.    2636.86  E(vib)   ...       0.00 

------------
INNER ENERGY
------------

The inner energy is: U= E(el) + E(ZPE) + E(vib) + E(rot) + E(trans)
    E(el)   - is the total energy from the electronic structure calculation
              = E(kin-el) + E(nuc-el) + E(el-el) + E(nuc-nuc)
    E(ZPE)  - the the zero temperature vibrational energy from the frequency calculation
    E(vib)  - the the finite temperature correction to E(ZPE) due to population
              of excited vibrational states
    E(rot)  - is the rotational thermal energy
    E(trans)- is the translational thermal energy

Summary of contributions to the inner energy U:
Electronic energy                ...   -342.30336254 Eh
Zero point energy                ...      0.02450750 Eh      15.38 kcal/mol
Thermal vibrational correction   ...      0.00014401 Eh       0.09 kcal/mol
Thermal rotational correction    ...      0.00141627 Eh       0.89 kcal/mol
Thermal translational correction ...      0.00141627 Eh       0.89 kcal/mol
-----------------------------------------------------------------------
Total thermal energy                   -342.27587848 Eh


Summary of corrections to the electronic energy:
(perhaps to be used in another calculation)
Total thermal correction                  0.00297656 Eh       1.87 kcal/mol
Non-thermal (ZPE) correction              0.02450750 Eh      15.38 kcal/mol
-----------------------------------------------------------------------
Total correction                          0.02748406 Eh      17.25 kcal/mol


--------
ENTHALPY
--------

The enthalpy is H = U + kB*T
                kB is Boltzmann's constant
Total free energy                 ...   -342.27587848 Eh 
Thermal Enthalpy correction       ...      0.00094421 Eh       0.59 kcal/mol
-----------------------------------------------------------------------
Total Enthalpy                    ...   -342.27493428 Eh

The point group will now be determined using a tolerance of 1.0000e-04.

WARNING (ORCA_SYM): The standard basis set is uninitialized at this point.
The point group is determined without considering basis set information.

Splitting atom subsets according to nuclear charge, mass and basis set.
Splitting atom subsets according to distance from the molecule's center.
Identifying relative distance patterns of the atoms.
Splitting atom subsets according to atoms' relative distance patterns.
Bring atoms of each subset into input order.
The molecule is neither linear nor planar.
There is at least one atom subset not centered around the molecule's center.
There is at least one subset with an odd number of atoms greater than one.
The molecule does not have a center of inversion.
Analyzing the first atom subset for its symmetry.
The atom subset represents a regular 3-gon that is not centered around the molecule's center.
Testing point group C3v.
Success!
This point group has been found:    C3v
Largest non-degenerate subgroup:    Cs


Mass-centered symmetry-perfected Cartesians (point group C3v):

Atom          Symmetry-perfected Cartesians (x, y, z; au)
  0       0.000000000000    0.000000000000    0.062067696381
  1       2.534849499316    0.000000000000   -0.635742337200
  2      -1.267424749658   -2.195244061178   -0.635742337200
  3      -1.267424749658    2.195244061178   -0.635742337200


Mass-centered symmetry-perfected Cartesians (rotated for point group Cs):

Atom          Symmetry-perfected Cartesians (x, y, z; au)
  0       0.062067696381    0.000000000000    0.000000000000
  1      -0.635742337200    2.534849499316    0.000000000000
  2      -0.635742337200   -1.267424749658   -2.195244061178
  3      -0.635742337200   -1.267424749658    2.195244061178


Note: Rotational entropy computed according to Herzberg 
Infrared and Raman Spectra, Chapter V,1, Van Nostrand Reinhold, 1945 
Point Group:  C3v, Symmetry Number:   3  
Rotational constants in cm-1:     5.444791     5.444362     3.098193 

Vibrational entropy computed according to the QRRHO of S. Grimme
Chem.Eur.J. 2012 18 9955


-------
ENTROPY
-------

The entropy contributions are T*S = T*(S(el)+S(vib)+S(rot)+S(trans))
     S(el)   - electronic entropy
     S(vib)  - vibrational entropy
     S(rot)  - rotational entropy
     S(trans)- translational entropy
The entropies will be listed as multiplied by the temperature to get
units of energy

Electronic entropy                ...      0.00065446 Eh      0.41 kcal/mol
Vibrational entropy               ...      0.00017856 Eh      0.11 kcal/mol
Rotational entropy                ...      0.00633964 Eh      3.98 kcal/mol
Translational entropy             ...      0.01734327 Eh     10.88 kcal/mol
-----------------------------------------------------------------------
Final entropy term                ...      0.02451593 Eh     15.38 kcal/mol

In case the symmetry of your molecule has not been determined correctly
or in case you have a reason to use a different symmetry number we print 
out the resulting rotational entropy values for sn=1,12 :
 --------------------------------------------------------
|  sn= 1 | S(rot)=       0.00737693 Eh      4.63 kcal/mol|
|  sn= 2 | S(rot)=       0.00672248 Eh      4.22 kcal/mol|
|  sn= 3 | S(rot)=       0.00633964 Eh      3.98 kcal/mol|
|  sn= 4 | S(rot)=       0.00606802 Eh      3.81 kcal/mol|
|  sn= 5 | S(rot)=       0.00585733 Eh      3.68 kcal/mol|
|  sn= 6 | S(rot)=       0.00568519 Eh      3.57 kcal/mol|
|  sn= 7 | S(rot)=       0.00553964 Eh      3.48 kcal/mol|
|  sn= 8 | S(rot)=       0.00541356 Eh      3.40 kcal/mol|
|  sn= 9 | S(rot)=       0.00530236 Eh      3.33 kcal/mol|
|  sn=10 | S(rot)=       0.00520288 Eh      3.26 kcal/mol|
|  sn=11 | S(rot)=       0.00511289 Eh      3.21 kcal/mol|
|  sn=12 | S(rot)=       0.00503073 Eh      3.16 kcal/mol|
 --------------------------------------------------------


-------------------
GIBBS FREE ENERGY
-------------------

The Gibbs free energy is G = H - T*S

Total enthalpy                    ...   -342.27493428 Eh 
Total entropy correction          ...     -0.02451593 Eh    -15.38 kcal/mol
-----------------------------------------------------------------------
Final Gibbs free energy         ...   -342.29945020 Eh

For completeness - the Gibbs free energy minus the electronic energy
G-E(el)                           ...      0.00391234 Eh      2.46 kcal/mol



Timings for individual modules:

Sum of individual times         ...     1469.250 sec (=  24.488 min)
GTO integral calculation        ...        8.186 sec (=   0.136 min)   0.6 %
SCF iterations                  ...       25.361 sec (=   0.423 min)   1.7 %
MP2 module                      ...       71.243 sec (=   1.187 min)   4.8 %
Numerical frequency calculation ...     1364.460 sec (=  22.741 min)  92.9 %
                             ****ORCA TERMINATED NORMALLY****
TOTAL RUN TIME: 0 days 0 hours 23 minutes 51 seconds 11 msec
