
                                 *****************
                                 * O   R   C   A *
                                 *****************

                                            #,                                       
                                            ###                                      
                                            ####                                     
                                            #####                                    
                                            ######                                   
                                           ########,                                 
                                     ,,################,,,,,                         
                               ,,#################################,,                 
                          ,,##########################################,,             
                       ,#########################################, ''#####,          
                    ,#############################################,,   '####,        
                  ,##################################################,,,,####,       
                ,###########''''           ''''###############################       
              ,#####''   ,,,,##########,,,,          '''####'''          '####       
            ,##' ,,,,###########################,,,                        '##       
           ' ,,###''''                  '''############,,,                           
         ,,##''                                '''############,,,,        ,,,,,,###''
      ,#''                                            '''#######################'''  
     '                                                          ''''####''''         
             ,#######,   #######,   ,#######,      ##                                
            ,#'     '#,  ##    ##  ,#'     '#,    #''#        ######   ,####,        
            ##       ##  ##   ,#'  ##            #'  '#       #        #'  '#        
            ##       ##  #######   ##           ,######,      #####,   #    #        
            '#,     ,#'  ##    ##  '#,     ,#' ,#      #,         ##   #,  ,#        
             '#######'   ##     ##  '#######'  #'      '#     #####' # '####'        



                  #######################################################
                  #                        -***-                        #
                  #          Department of theory and spectroscopy      #
                  #    Directorship and core code : Frank Neese         #
                  #        Max Planck Institute fuer Kohlenforschung    #
                  #                Kaiser Wilhelm Platz 1               #
                  #                 D-45470 Muelheim/Ruhr               #
                  #                      Germany                        #
                  #                                                     #
                  #                  All rights reserved                #
                  #                        -***-                        #
                  #######################################################


                         Program Version 5.0.2 -  RELEASE  -


 With contributions from (in alphabetic order):
   Daniel Aravena         : Magnetic Suceptibility
   Michael Atanasov       : Ab Initio Ligand Field Theory (pilot matlab implementation)
   Alexander A. Auer      : GIAO ZORA, VPT2 properties, NMR spectrum
   Ute Becker             : Parallelization
   Giovanni Bistoni       : ED, misc. LED, open-shell LED, HFLD
   Martin Brehm           : Molecular dynamics
   Dmytro Bykov           : SCF Hessian
   Vijay G. Chilkuri      : MRCI spin determinant printing, contributions to CSF-ICE
   Dipayan Datta          : RHF DLPNO-CCSD density
   Achintya Kumar Dutta   : EOM-CC, STEOM-CC
   Dmitry Ganyushin       : Spin-Orbit,Spin-Spin,Magnetic field MRCI
   Miquel Garcia          : C-PCM and meta-GGA Hessian, CC/C-PCM, Gaussian charge scheme
   Yang Guo               : DLPNO-NEVPT2, F12-NEVPT2, CIM, IAO-localization
   Andreas Hansen         : Spin unrestricted coupled pair/coupled cluster methods
   Benjamin Helmich-Paris : MC-RPA, TRAH-SCF, COSX integrals
   Lee Huntington         : MR-EOM, pCC
   Robert Izsak           : Overlap fitted RIJCOSX, COSX-SCS-MP3, EOM
   Marcus Kettner         : VPT2
   Christian Kollmar      : KDIIS, OOCD, Brueckner-CCSD(T), CCSD density, CASPT2, CASPT2-K
   Simone Kossmann        : Meta GGA functionals, TD-DFT gradient, OOMP2, MP2 Hessian
   Martin Krupicka        : Initial AUTO-CI
   Lucas Lang             : DCDCAS
   Marvin Lechner         : AUTO-CI (C++ implementation), FIC-MRCC
   Dagmar Lenk            : GEPOL surface, SMD
   Dimitrios Liakos       : Extrapolation schemes; Compound Job, initial MDCI parallelization
   Dimitrios Manganas     : Further ROCIS development; embedding schemes
   Dimitrios Pantazis     : SARC Basis sets
   Anastasios Papadopoulos: AUTO-CI, single reference methods and gradients
   Taras Petrenko         : DFT Hessian,TD-DFT gradient, ASA, ECA, R-Raman, ABS, FL, XAS/XES, NRVS
   Peter Pinski           : DLPNO-MP2, DLPNO-MP2 Gradient
   Christoph Reimann      : Effective Core Potentials
   Marius Retegan         : Local ZFS, SOC
   Christoph Riplinger    : Optimizer, TS searches, QM/MM, DLPNO-CCSD(T), (RO)-DLPNO pert. Triples
   Tobias Risthaus        : Range-separated hybrids, TD-DFT gradient, RPA, STAB
   Michael Roemelt        : Original ROCIS implementation
   Masaaki Saitow         : Open-shell DLPNO-CCSD energy and density
   Barbara Sandhoefer     : DKH picture change effects
   Avijit Sen             : IP-ROCIS
   Kantharuban Sivalingam : CASSCF convergence, NEVPT2, FIC-MRCI
   Bernardo de Souza      : ESD, SOC TD-DFT
   Georgi Stoychev        : AutoAux, RI-MP2 NMR, DLPNO-MP2 response
   Willem Van den Heuvel  : Paramagnetic NMR
   Boris Wezisla          : Elementary symmetry handling
   Frank Wennmohs         : Technical directorship


 We gratefully acknowledge several colleagues who have allowed us to
 interface, adapt or use parts of their codes:
   Stefan Grimme, W. Hujo, H. Kruse, P. Pracht,  : VdW corrections, initial TS optimization,
                  C. Bannwarth, S. Ehlert          DFT functionals, gCP, sTDA/sTD-DF
   Ed Valeev, F. Pavosevic, A. Kumar             : LibInt (2-el integral package), F12 methods
   Garnet Chan, S. Sharma, J. Yang, R. Olivares  : DMRG
   Ulf Ekstrom                                   : XCFun DFT Library
   Mihaly Kallay                                 : mrcc  (arbitrary order and MRCC methods)
   Jiri Pittner, Ondrej Demel                    : Mk-CCSD
   Frank Weinhold                                : gennbo (NPA and NBO analysis)
   Christopher J. Cramer and Donald G. Truhlar   : smd solvation model
   Lars Goerigk                                  : TD-DFT with DH, B97 family of functionals
   V. Asgeirsson, H. Jonsson                     : NEB implementation
   FAccTs GmbH                                   : IRC, NEB, NEB-TS, DLPNO-Multilevel, CI-OPT
                                                   MM, QMMM, 2- and 3-layer-ONIOM, Crystal-QMMM,
                                                   LR-CPCM, SF, NACMEs, symmetry and pop. for TD-DFT,
                                                   nearIR, NL-DFT gradient (VV10), updates on ESD,
                                                   ML-optimized integration grids
   S Lehtola, MJT Oliveira, MAL Marques          : LibXC Library
   Liviu Ungur et al                             : ANISO software


 Your calculation uses the libint2 library for the computation of 2-el integrals
 For citations please refer to: http://libint.valeyev.net

 Your ORCA version has been built with support for libXC version: 5.1.0
 For citations please refer to: https://tddft.org/programs/libxc/

 This ORCA versions uses:
   CBLAS   interface :  Fast vector & matrix operations
   LAPACKE interface :  Fast linear algebra routines
   Shared memory     :  Shared parallel matrices


XCFun DFT library Copyright 2009-2010 Ulf Ekstrom and contributors.
See http://admol.org/xcfun for more information.
This is free software; see the source code for copying conditions.
There is ABSOLUTELY NO WARRANTY; not even for MERCHANTABILITY or FITNESS FOR A PARTICULAR PURPOSE.
For details see the documentation.
Scientific users of this library should cite U. Ekstrom, L. Visscher, R. Bast, A. J. Thorvaldsen and K. Ruud;
J.Chem.Theor.Comp. 2010, DOI: 10.1021/ct100117s
XCFun Version 0.99 

================================================================================

----- Orbital basis set information -----
Your calculation utilizes the basis: def2-TZVP
   F. Weigend and R. Ahlrichs, Phys. Chem. Chem. Phys. 7, 3297 (2005).

----- AuxJ basis set information -----
Your calculation utilizes the auxiliary basis: def2/J
   F. Weigend, Phys. Chem. Chem. Phys. 8, 1057 (2006).

================================================================================
                                        WARNINGS
                       Please study these warnings very carefully!
================================================================================


WARNING: your system is open-shell and RHF/RKS was chosen
  ===> : WILL SWITCH to UHF/UKS


WARNING: Geometry Optimization
  ===> : Switching off AutoStart
         For restart on a previous wavefunction, please use MOREAD

INFO   : the flag for use of the SHARK integral package has been found!

================================================================================
                                       INPUT FILE
================================================================================
NAME = ph+.inp
|  1> # avogadro generated ORCA input file 
|  2> # PH+ DUPLETO - GEOMETRIA
|  3> # 
|  4> ! WB97X def2-tzvp OPT FREQ
|  5> %maxcore 3000 
|  6> 
|  7> * xyz 1 2
|  8>    P       -4.07437        0.44335        0.00000
|  9>    H       -2.67483        0.28199        0.00000
| 10> *
| 11> 
| 12> 
| 13>                          ****END OF INPUT****
================================================================================

                       *****************************
                       * Geometry Optimization Run *
                       *****************************

Geometry optimization settings:
Update method            Update   .... BFGS
Choice of coordinates    CoordSys .... Z-matrix Internals
Initial Hessian          InHess   .... Almoef's Model

Convergence Tolerances:
Energy Change            TolE     ....  5.0000e-06 Eh
Max. Gradient            TolMAXG  ....  3.0000e-04 Eh/bohr
RMS Gradient             TolRMSG  ....  1.0000e-04 Eh/bohr
Max. Displacement        TolMAXD  ....  4.0000e-03 bohr
RMS Displacement         TolRMSD  ....  2.0000e-03 bohr
Strict Convergence                ....  False
------------------------------------------------------------------------------
                        ORCA OPTIMIZATION COORDINATE SETUP
------------------------------------------------------------------------------

The optimization will be done in new redundant internal coordinates
Making redundant internal coordinates   ...  (new redundants) done
Evaluating the initial hessian          ...  (Almloef) done
Evaluating the coordinates              ...  done
Calculating the B-matrix                .... done
Calculating the G-matrix                .... done
Diagonalizing the G-matrix              .... done
The first mode is                       ....    0
The number of degrees of freedom        ....    1

    -----------------------------------------------------------------
                    Redundant Internal Coordinates


    -----------------------------------------------------------------
         Definition                    Initial Value    Approx d2E/dq
    -----------------------------------------------------------------
      1. B(H   1,P   0)                  1.4088         0.375210   
    -----------------------------------------------------------------

Number of atoms                         .... 2
Number of degrees of freedom            .... 1

         *************************************************************
         *                GEOMETRY OPTIMIZATION CYCLE   1            *
         *************************************************************
---------------------------------
CARTESIAN COORDINATES (ANGSTROEM)
---------------------------------
  P     -4.074370    0.443350    0.000000
  H     -2.674830    0.281990    0.000000

----------------------------
CARTESIAN COORDINATES (A.U.)
----------------------------
  NO LB      ZA    FRAG     MASS         X           Y           Z
   0 P    15.0000    0    30.974   -7.699443    0.837810    0.000000
   1 H     1.0000    0     1.008   -5.054696    0.532884    0.000000

--------------------------------
INTERNAL COORDINATES (ANGSTROEM)
--------------------------------
 P      0   0   0     0.000000000000     0.00000000     0.00000000
 H      1   0   0     1.408811293680     0.00000000     0.00000000

---------------------------
INTERNAL COORDINATES (A.U.)
---------------------------
 P      0   0   0     0.000000000000     0.00000000     0.00000000
 H      1   0   0     2.662267519430     0.00000000     0.00000000

---------------------
BASIS SET INFORMATION
---------------------
There are 2 groups of distinct atoms

 Group   1 Type P   : 14s9p3d1f contracted to 5s5p2d1f pattern {73211/51111/21/1}
 Group   2 Type H   : 5s1p contracted to 3s1p pattern {311/1}

Atom   0P    basis set group =>   1
Atom   1H    basis set group =>   2
---------------------------------
AUXILIARY/J BASIS SET INFORMATION
---------------------------------
There are 2 groups of distinct atoms

 Group   1 Type P   : 14s5p5d2f1g contracted to 8s4p3d1f1g pattern {71111111/2111/311/2/1}
 Group   2 Type H   : 5s2p1d contracted to 3s1p1d pattern {311/2/1}

Atom   0P    basis set group =>   1
Atom   1H    basis set group =>   2
------------------------------------------------------------------------------
                           ORCA GTO INTEGRAL CALCULATION
                           -- RI-GTO INTEGRALS CHOSEN --
------------------------------------------------------------------------------
------------------------------------------------------------------------------
                   ___                                                        
                  /   \      - P O W E R E D   B Y -                         
                 /     \                                                     
                 |  |  |   _    _      __       _____    __    __             
                 |  |  |  | |  | |    /  \     |  _  \  |  |  /  |          
                  \  \/   | |  | |   /    \    | | | |  |  | /  /          
                 / \  \   | |__| |  /  /\  \   | |_| |  |  |/  /          
                |  |  |   |  __  | /  /__\  \  |    /   |      \           
                |  |  |   | |  | | |   __   |  |    \   |  |\   \          
                \     /   | |  | | |  |  |  |  | |\  \  |  | \   \       
                 \___/    |_|  |_| |__|  |__|  |_| \__\ |__|  \__/        
                                                                              
                      - O R C A' S   B I G   F R I E N D -                    
                                      &                                       
                       - I N T E G R A L  F E E D E R -                       
                                                                              
 v1 FN, 2020, v2 2021                                                         
------------------------------------------------------------------------------


Reading SHARK input file ph+.SHARKINP.tmp ... ok
----------------------
SHARK INTEGRAL PACKAGE
----------------------

Number of atoms                             ...      2
Number of basis functions                   ...     43
Number of shells                            ...     17
Maximum angular momentum                    ...      3
Integral batch strategy                     ... SHARK/LIBINT Hybrid
RI-J (if used) integral strategy            ... SPLIT-RIJ (Revised 2003 algorithm where possible)
Printlevel                                  ...      1
Contraction scheme used                     ... SEGMENTED contraction
Coulomb Range Separation                    ... NOT USED
Exchange Range Separation                   ... Long Range
   Mu parameter                             ...  0.300000
   Scaling (regular/separated)              ...  0.157706  0.842294
Finite Nucleus Model                        ... NOT USED
Auxiliary Coulomb fitting basis             ... AVAILABLE
   # of basis functions in Aux-J            ...     62
   # of shells in Aux-J                     ...     22
   Maximum angular momentum in Aux-J        ...      4
Auxiliary J/K fitting basis                 ... NOT available
Auxiliary Correlation fitting basis         ... NOT available
Auxiliary 'external' fitting basis          ... NOT available
Integral threshold                          ...     2.500000e-11
Primitive cut-off                           ...     2.500000e-12
Primitive pair pre-selection threshold      ...     2.500000e-12

Calculating pre-screening integrals         ... done (  0.1 sec) Dimension = 17
Organizing shell pair data                  ... done (  0.0 sec)
Shell pair information
Total number of shell pairs                 ...       153
Shell pairs after pre-screening             ...       153
Total number of primitive shell pairs       ...       600
Primitive shell pairs kept                  ...       573
          la=0 lb=0:     36 shell pairs
          la=1 lb=0:     48 shell pairs
          la=1 lb=1:     21 shell pairs
          la=2 lb=0:     16 shell pairs
          la=2 lb=1:     12 shell pairs
          la=2 lb=2:      3 shell pairs
          la=3 lb=0:      8 shell pairs
          la=3 lb=1:      6 shell pairs
          la=3 lb=2:      2 shell pairs
          la=3 lb=3:      1 shell pairs

Calculating one electron integrals          ... done (  0.0 sec)
Calculating RI/J V-Matrix + Cholesky decomp.... done (  0.0 sec)
Calculating Nuclear repulsion               ... done (  0.0 sec) ENN=      5.634294784624 Eh

SHARK setup successfully completed in   0.2 seconds

Maximum memory used throughout the entire GTOINT-calculation: 15.2 MB
-------------------------------------------------------------------------------
                                 ORCA SCF
-------------------------------------------------------------------------------

------------
SCF SETTINGS
------------
Hamiltonian:
 Density Functional     Method          .... DFT(GTOs)
 Exchange Functional    Exchange        .... WB97X
 Correlation Functional Correlation     .... WB97X
 Gradients option       PostSCFGGA      .... off
 Hybrid DFT is turned on
   Fraction HF Exchange ScalHFX         ....  0.157706
   Scaling of DF-GGA-X  ScalDFX         ....  0.000000
   Scaling of DF-GGA-C  ScalDFC         ....  1.000000
   Scaling of DF-LDA-C  ScalLDAC        ....  1.000000
   Perturbative correction              ....  0.000000
   Density functional embedding theory  .... OFF
 Long-range corrected/Screened/Range-Separated Hybrid DFT is turned on
   Amount of maximum screened exact exchange              ....  0.842294
   Range separation parameter mu (erf(mu*r12)/r12)        ....  0.300000
 RI-approximation to the Coulomb term is turned on
   Number of AuxJ basis functions       .... 62
   RIJ-COSX (HFX calculated with COS-X)).... on


General Settings:
 Integral files         IntName         .... ph+
 Hartree-Fock type      HFTyp           .... UHF
 Total Charge           Charge          ....    1
 Multiplicity           Mult            ....    2
 Number of Electrons    NEL             ....   15
 Basis Dimension        Dim             ....   43
 Nuclear Repulsion      ENuc            ....      5.6342947846 Eh

Convergence Acceleration:
 DIIS                   CNVDIIS         .... on
   Start iteration      DIISMaxIt       ....    12
   Startup error        DIISStart       ....  0.200000
   # of expansion vecs  DIISMaxEq       ....     5
   Bias factor          DIISBfac        ....   1.050
   Max. coefficient     DIISMaxC        ....  10.000
 Trust-Rad. Augm. Hess. CNVTRAH         .... auto
   Auto Start mean grad. ratio tolernc. ....  1.125000
   Auto Start start iteration           ....    20
   Auto Start num. interpolation iter.  ....    10
   Max. Number of Micro iterations      ....    16
   Max. Number of Macro iterations      .... Maxiter - #DIIS iter
   Number of Davidson start vectors     ....     2
   Converg. threshold I  (grad. norm)   ....   1.000e-05
   Converg. threshold II (energy diff.) ....   1.000e-08
   Grad. Scal. Fac. for Micro threshold ....   0.100
   Minimum threshold for Micro iter.    ....   0.010
   NR start threshold (gradient norm)   ....   0.001
   Initial trust radius                 ....   0.400
   Minimum AH scaling param. (alpha)    ....   1.000
   Maximum AH scaling param. (alpha)    .... 1000.000
   Orbital update algorithm             .... Taylor
   White noise on init. David. guess    .... on
   Maximum white noise                  ....   0.010
   Quad. conv. algorithm                .... NR
 SOSCF                  CNVSOSCF        .... off
 Level Shifting         CNVShift        .... on
   Level shift para.    LevelShift      ....    0.2500
   Turn off err/grad.   ShiftErr        ....    0.0010
 Zerner damping         CNVZerner       .... off
 Static damping         CNVDamp         .... on
   Fraction old density DampFac         ....    0.7000
   Max. Damping (<1)    DampMax         ....    0.9800
   Min. Damping (>=0)   DampMin         ....    0.0000
   Turn off err/grad.   DampErr         ....    0.1000
 Fernandez-Rico         CNVRico         .... off

SCF Procedure:
 Maximum # iterations   MaxIter         ....   125
 SCF integral mode      SCFMode         .... Direct
   Integral package                     .... SHARK and LIBINT hybrid scheme
 Reset frequency        DirectResetFreq ....    20
 Integral Threshold     Thresh          ....  2.500e-11 Eh
 Primitive CutOff       TCut            ....  2.500e-12 Eh

Convergence Tolerance:
 Convergence Check Mode ConvCheckMode   .... Total+1el-Energy
 Convergence forced     ConvForced      .... 0
 Energy Change          TolE            ....  1.000e-08 Eh
 1-El. energy change                    ....  1.000e-05 Eh
 DIIS Error             TolErr          ....  5.000e-07


Diagonalization of the overlap matrix:
Smallest eigenvalue                        ... 2.087e-02
Time for diagonalization                   ...    0.003 sec
Threshold for overlap eigenvalues          ... 1.000e-08
Number of eigenvalues below threshold      ... 0
Time for construction of square roots      ...    0.005 sec
Total time needed                          ...    0.008 sec

Time for model grid setup =    0.023 sec

------------------------------
INITIAL GUESS: MODEL POTENTIAL
------------------------------
Loading Hartree-Fock densities                     ... done
Calculating cut-offs                               ... done
Initializing the effective Hamiltonian             ... done
Setting up the integral package (SHARK)            ... done
Starting the Coulomb interaction                   ... done (   0.0 sec)
Reading the grid                                   ... done
Mapping shells                                     ... done
Starting the XC term evaluation                    ... done (   0.0 sec)
  promolecular density results
     # of electrons  =     15.999663607
     EX              =    -22.735618612
     EC              =     -0.576890563
     EX+EC           =    -23.312509175
Transforming the Hamiltonian                       ... done (   0.0 sec)
Diagonalizing the Hamiltonian                      ... done (   0.0 sec)
Back transforming the eigenvectors                 ... done (   0.0 sec)
Now organizing SCF variables                       ... done
                      ------------------
                      INITIAL GUESS DONE (   0.1 sec)
                      ------------------
-------------------
DFT GRID GENERATION
-------------------

General Integration Accuracy     IntAcc      ... 4.388
Radial Grid Type                 RadialGrid  ... OptM3 with GC (2021)
Angular Grid (max. ang.)         AngularGrid ... 4 (Lebedev-302)
Angular grid pruning method      GridPruning ... 4 (adaptive)
Weight generation scheme         WeightScheme... Becke
Basis function cutoff            BFCut       ... 1.0000e-11
Integration weight cutoff        WCut        ... 1.0000e-14
Angular grids for H and He will be reduced by one unit
Partially contracted basis set               ... off
Rotationally invariant grid construction     ... off

Total number of grid points                  ...    10693
Total number of batches                      ...      168
Average number of points per batch           ...       63
Average number of grid points per atom       ...     5347
Time for grid setup =    0.114 sec

--------------------
COSX GRID GENERATION
--------------------

GRIDX 1
-------
General Integration Accuracy     IntAcc      ... 3.816
Radial Grid Type                 RadialGrid  ... OptM3 with GC (2021)
Angular Grid (max. ang.)         AngularGrid ... 1 (Lebedev-50)
Angular grid pruning method      GridPruning ... 4 (adaptive)
Weight generation scheme         WeightScheme... Becke
Basis function cutoff            BFCut       ... 1.0000e-11
Integration weight cutoff        WCut        ... 1.0000e-14
Angular grids for H and He will be reduced by one unit
Partially contracted basis set               ... on
Rotationally invariant grid construction     ... off

Total number of grid points                  ...     1286
Total number of batches                      ...       21
Average number of points per batch           ...       61
Average number of grid points per atom       ...      643
UseSFitting                                  ... on

GRIDX 2
-------
General Integration Accuracy     IntAcc      ... 4.020
Radial Grid Type                 RadialGrid  ... OptM3 with GC (2021)
Angular Grid (max. ang.)         AngularGrid ... 2 (Lebedev-110)
Angular grid pruning method      GridPruning ... 4 (adaptive)
Weight generation scheme         WeightScheme... Becke
Basis function cutoff            BFCut       ... 1.0000e-11
Integration weight cutoff        WCut        ... 1.0000e-14
Angular grids for H and He will be reduced by one unit
Partially contracted basis set               ... on
Rotationally invariant grid construction     ... off

Total number of grid points                  ...     2792
Total number of batches                      ...       45
Average number of points per batch           ...       62
Average number of grid points per atom       ...     1396
UseSFitting                                  ... on

GRIDX 3
-------
General Integration Accuracy     IntAcc      ... 4.338
Radial Grid Type                 RadialGrid  ... OptM3 with GC (2021)
Angular Grid (max. ang.)         AngularGrid ... 3 (Lebedev-194)
Angular grid pruning method      GridPruning ... 4 (adaptive)
Weight generation scheme         WeightScheme... Becke
Basis function cutoff            BFCut       ... 1.0000e-11
Integration weight cutoff        WCut        ... 1.0000e-14
Angular grids for H and He will be reduced by one unit
Partially contracted basis set               ... on
Rotationally invariant grid construction     ... off

Total number of grid points                  ...     6825
Total number of batches                      ...      108
Average number of points per batch           ...       63
Average number of grid points per atom       ...     3413
UseSFitting                                  ... on

Time for X-Grid setup             =    0.101 sec

--------------
SCF ITERATIONS
--------------
ITER       Energy         Delta-E        Max-DP      RMS-DP      [F,P]     Damp
               ***  Starting incremental Fock matrix formation  ***
  0   -341.4749713060   0.000000000000 0.03686873  0.00133112  0.0870372 0.7000
  1   -341.4830621376  -0.008090831544 0.03119902  0.00117510  0.0612388 0.7000
                               ***Turning on DIIS***
  2   -341.4888439376  -0.005781799980 0.07237817  0.00286297  0.0393547 0.0000
  3   -341.5021048913  -0.013260953732 0.01549320  0.00051065  0.0169082 0.0000
  4   -341.5025922511  -0.000487359826 0.00831422  0.00024032  0.0036207 0.0000
  5   -341.5026969935  -0.000104742380 0.00509408  0.00014423  0.0019958 0.0000
  6   -341.5027267840  -0.000029790538 0.00253926  0.00006904  0.0007922 0.0000
               *** Restarting incremental Fock matrix formation ***
                                   *** Resetting DIIS ***
  7   -341.5027351945  -0.000008410436 0.00012843  0.00000622  0.0000881 0.0000
  8   -341.5027352969  -0.000000102463 0.00006555  0.00000313  0.0000320 0.0000
  9   -341.5027353187  -0.000000021727 0.00001849  0.00000087  0.0000057 0.0000
 10   -341.5027353210  -0.000000002338 0.00000883  0.00000038  0.0000021 0.0000
                 **** Energy Check signals convergence ****

               *****************************************************
               *                     SUCCESS                       *
               *           SCF CONVERGED AFTER  11 CYCLES          *
               *****************************************************

Old exchange energy                            =     -5.605174246 Eh
New exchange energy                            =     -5.605172089 Eh
Exchange energy change after final integration =      0.000002157 Eh
Total energy after final integration           =   -341.502733164 Eh
Final COS-X integration done in                =     0.687 sec

----------------
TOTAL SCF ENERGY
----------------

Total Energy       :         -341.50273316 Eh           -9292.76180 eV

Components:
Nuclear Repulsion  :            5.63429478 Eh             153.31696 eV
Electronic Energy  :         -347.13702795 Eh           -9446.07876 eV
One Electron Energy:         -477.65713018 Eh          -12997.71130 eV
Two Electron Energy:          130.52010223 Eh            3551.63254 eV
Max COSX asymmetry :            0.00000024 Eh               0.00001 eV

Virial components:
Potential Energy   :         -682.33860944 Eh          -18567.37751 eV
Kinetic Energy     :          340.83587628 Eh            9274.61571 eV
Virial Ratio       :            2.00195653


DFT components:
N(Alpha)           :        7.999999772913 electrons
N(Beta)            :        7.000000073060 electrons
N(Total)           :       14.999999845973 electrons
E(XC)              :      -17.657494478694 Eh       
DFET-embed. en.    :        0.000000000000 Eh       

---------------
SCF CONVERGENCE
---------------

  Last Energy change         ...   -5.3592e-10  Tolerance :   1.0000e-08
  Last MAX-Density change    ...    0.0000e+00  Tolerance :   1.0000e-07
  Last RMS-Density change    ...    0.0000e+00  Tolerance :   5.0000e-09
  Last DIIS Error            ...    1.1449e-06  Tolerance :   5.0000e-07

             **** THE GBW FILE WAS UPDATED (ph+.gbw) ****
             **** DENSITY ph+.scfp WAS UPDATED ****
             **** ENERGY FILE WAS UPDATED (ph+.en.tmp) ****
----------------------
UHF SPIN CONTAMINATION
----------------------

Warning: in a DFT calculation there is little theoretical justification to 
         calculate <S**2> as in Hartree-Fock theory. We will do it anyways
         but you should keep in mind that the values have only limited relevance

Expectation value of <S**2>     :     0.754689
Ideal value S*(S+1) for S=0.5   :     0.750000
Deviation                       :     0.004689

             **** THE GBW FILE WAS UPDATED (ph+.gbw) ****
             **** DENSITY ph+.scfp WAS UPDATED ****
----------------
ORBITAL ENERGIES
----------------
                 SPIN UP ORBITALS
  NO   OCC          E(Eh)            E(eV) 
   0   1.0000     -77.474931     -2108.2001 
   1   1.0000      -7.055285      -191.9841 
   2   1.0000      -5.218492      -142.0024 
   3   1.0000      -5.216716      -141.9541 
   4   1.0000      -5.209004      -141.7442 
   5   1.0000      -1.065566       -28.9955 
   6   1.0000      -0.762406       -20.7461 
   7   1.0000      -0.671409       -18.2700 
   8   0.0000      -0.387538       -10.5454 
   9   0.0000      -0.144232        -3.9248 
  10   0.0000       0.014880         0.4049 
  11   0.0000       0.046224         1.2578 
  12   0.0000       0.054909         1.4942 
  13   0.0000       0.059514         1.6195 
  14   0.0000       0.063953         1.7403 
  15   0.0000       0.083883         2.2826 
  16   0.0000       0.085264         2.3201 
  17   0.0000       0.093465         2.5433 
  18   0.0000       0.278005         7.5649 
  19   0.0000       0.376253        10.2384 
  20   0.0000       0.969441        26.3798 
  21   0.0000       0.971013        26.4226 
  22   0.0000       0.975428        26.5427 
  23   0.0000       0.980131        26.6707 
  24   0.0000       0.984269        26.7833 
  25   0.0000       0.988005        26.8850 
  26   0.0000       0.990400        26.9502 
  27   0.0000       1.095266        29.8037 
  28   0.0000       1.096536        29.8383 
  29   0.0000       1.100052        29.9339 
  30   0.0000       1.103356        30.0238 
  31   0.0000       1.233235        33.5580 
  32   0.0000       1.241796        33.7910 
  33   0.0000       1.242562        33.8118 
  34   0.0000       1.380339        37.5609 
  35   0.0000       1.802552        49.0499 
  36   0.0000       1.806076        49.1458 
  37   0.0000       2.228168        60.6315 
  38   0.0000       2.460761        66.9607 
  39   0.0000       6.910661       188.0487 
  40   0.0000       6.917008       188.2214 
  41   0.0000       7.002346       190.5435 
  42   0.0000      13.002191       353.8076 

                 SPIN DOWN ORBITALS
  NO   OCC          E(Eh)            E(eV) 
   0   1.0000     -77.469832     -2108.0613 
   1   1.0000      -7.051629      -191.8846 
   2   1.0000      -5.215712      -141.9267 
   3   1.0000      -5.206196      -141.6678 
   4   1.0000      -5.202423      -141.5651 
   5   1.0000      -1.020496       -27.7691 
   6   1.0000      -0.746541       -20.3144 
   7   0.0000      -0.375226       -10.2104 
   8   0.0000      -0.341510        -9.2930 
   9   0.0000      -0.132821        -3.6142 
  10   0.0000       0.013189         0.3589 
  11   0.0000       0.058738         1.5983 
  12   0.0000       0.081711         2.2235 
  13   0.0000       0.088861         2.4180 
  14   0.0000       0.089831         2.4444 
  15   0.0000       0.092906         2.5281 
  16   0.0000       0.097265         2.6467 
  17   0.0000       0.113791         3.0964 
  18   0.0000       0.281953         7.6723 
  19   0.0000       0.383181        10.4269 
  20   0.0000       0.973851        26.4998 
  21   0.0000       0.980134        26.6708 
  22   0.0000       0.986103        26.8332 
  23   0.0000       0.992520        27.0078 
  24   0.0000       0.995053        27.0768 
  25   0.0000       0.997212        27.1355 
  26   0.0000       1.015597        27.6358 
  27   0.0000       1.132061        30.8049 
  28   0.0000       1.132399        30.8141 
  29   0.0000       1.135118        30.8881 
  30   0.0000       1.135345        30.8943 
  31   0.0000       1.237490        33.6738 
  32   0.0000       1.251249        34.0482 
  33   0.0000       1.265037        34.4234 
  34   0.0000       1.390122        37.8271 
  35   0.0000       1.803913        49.0870 
  36   0.0000       1.819317        49.5061 
  37   0.0000       2.231080        60.7108 
  38   0.0000       2.460882        66.9640 
  39   0.0000       6.918393       188.2590 
  40   0.0000       6.944429       188.9675 
  41   0.0000       7.008089       190.6998 
  42   0.0000      13.011919       354.0723 

                    ********************************
                    * MULLIKEN POPULATION ANALYSIS *
                    ********************************

--------------------------------------------
MULLIKEN ATOMIC CHARGES AND SPIN POPULATIONS
--------------------------------------------
   0 P :    0.786106    1.013063
   1 H :    0.213894   -0.013063
Sum of atomic charges         :    1.0000000
Sum of atomic spin populations:    1.0000000

-----------------------------------------------------
MULLIKEN REDUCED ORBITAL CHARGES AND SPIN POPULATIONS
-----------------------------------------------------
CHARGE
  0 P s       :     5.936168  s :     5.936168
      pz      :     2.995738  p :     8.208305
      px      :     3.196677
      py      :     2.015890
      dz2     :     0.016723  d :     0.066228
      dxz     :     0.001451
      dyz     :     0.000019
      dx2y2   :     0.045547
      dxy     :     0.002487
      f0      :    -0.000003  f :     0.003193
      f+1     :     0.001842
      f-1     :     0.000025
      f+2     :    -0.000005
      f-2     :    -0.000000
      f+3     :     0.001182
      f-3     :     0.000151
  1 H s       :     0.770036  s :     0.770036
      pz      :     0.002799  p :     0.016070
      px      :     0.013090
      py      :     0.000181

SPIN
  0 P s       :     0.009689  s :     0.009689
      pz      :     0.995744  p :     1.001682
      px      :     0.005863
      py      :     0.000075
      dz2     :     0.001494  d :     0.002971
      dxz     :     0.001450
      dyz     :     0.000019
      dx2y2   :     0.000007
      dxy     :     0.000000
      f0      :    -0.000003  f :    -0.001279
      f+1     :    -0.001180
      f-1     :    -0.000016
      f+2     :    -0.000005
      f-2     :    -0.000000
      f+3     :    -0.000066
      f-3     :    -0.000009
  1 H s       :    -0.016050  s :    -0.016050
      pz      :     0.002794  p :     0.002988
      px      :     0.000191
      py      :     0.000003


                     *******************************
                     * LOEWDIN POPULATION ANALYSIS *
                     *******************************

-------------------------------------------
LOEWDIN ATOMIC CHARGES AND SPIN POPULATIONS
-------------------------------------------
   0 P :    0.961115    1.003880
   1 H :    0.038885   -0.003880

----------------------------------------------------
LOEWDIN REDUCED ORBITAL CHARGES AND SPIN POPULATIONS
----------------------------------------------------
CHARGE
  0 P s       :     5.732713  s :     5.732713
      pz      :     2.990473  p :     8.222570
      px      :     3.215945
      py      :     2.016152
      dz2     :     0.019308  d :     0.076621
      dxz     :     0.001070
      dyz     :     0.000014
      dx2y2   :     0.053317
      dxy     :     0.002912
      f0      :     0.000015  f :     0.006981
      f+1     :     0.003137
      f-1     :     0.000042
      f+2     :     0.000029
      f-2     :     0.000002
      f+3     :     0.003329
      f-3     :     0.000428
  1 H s       :     0.905282  s :     0.905282
      pz      :     0.008398  p :     0.055833
      px      :     0.046813
      py      :     0.000623

SPIN
  0 P s       :     0.010269  s :     0.010269
      pz      :     0.990476  p :     0.991320
      px      :     0.000837
      py      :     0.000008
      dz2     :     0.002917  d :     0.003429
      dxz     :     0.001068
      dyz     :     0.000014
      dx2y2   :    -0.000541
      dxy     :    -0.000030
      f0      :     0.000014  f :    -0.001138
      f+1     :    -0.001011
      f-1     :    -0.000014
      f+2     :     0.000029
      f-2     :     0.000002
      f+3     :    -0.000140
      f-3     :    -0.000018
  1 H s       :    -0.013306  s :    -0.013306
      pz      :     0.008398  p :     0.009427
      px      :     0.001015
      py      :     0.000014


                      *****************************
                      * MAYER POPULATION ANALYSIS *
                      *****************************

  NA   - Mulliken gross atomic population
  ZA   - Total nuclear charge
  QA   - Mulliken gross atomic charge
  VA   - Mayer's total valence
  BVA  - Mayer's bonded valence
  FA   - Mayer's free valence

  ATOM       NA         ZA         QA         VA         BVA        FA
  0 P     14.2139    15.0000     0.7861     1.9278     0.9244     1.0034
  1 H      0.7861     1.0000     0.2139     0.9246     0.9244     0.0003

  Mayer bond orders larger than 0.100000
B(  0-P ,  1-H ) :   0.9244 

-------
TIMINGS
-------

Total SCF time: 0 days 0 hours 0 min 7 sec 

Total time                  ....       7.883 sec
Sum of individual times     ....       7.675 sec  ( 97.4%)

Fock matrix formation       ....       7.369 sec  ( 93.5%)
  Split-RI-J                ....       0.417 sec  (  5.7% of F)
  Chain of spheres X        ....       4.459 sec  ( 60.5% of F)
  XC integration            ....       2.366 sec  ( 32.1% of F)
    Basis function eval.    ....       0.337 sec  ( 14.2% of XC)
    Density eval.           ....       0.526 sec  ( 22.2% of XC)
    XC-Functional eval.     ....       0.800 sec  ( 33.8% of XC)
    XC-Potential eval.      ....       0.438 sec  ( 18.5% of XC)
Diagonalization             ....       0.015 sec  (  0.2%)
Density matrix formation    ....       0.002 sec  (  0.0%)
Population analysis         ....       0.009 sec  (  0.1%)
Initial guess               ....       0.029 sec  (  0.4%)
Orbital Transformation      ....       0.000 sec  (  0.0%)
Orbital Orthonormalization  ....       0.000 sec  (  0.0%)
DIIS solution               ....       0.013 sec  (  0.2%)
Grid generation             ....       0.238 sec  (  3.0%)

Maximum memory used throughout the entire SCF-calculation: 60.6 MB

-------------------------   --------------------
FINAL SINGLE POINT ENERGY      -341.502733164314
-------------------------   --------------------

------------------------------------------------------------------------------
                         ORCA SCF GRADIENT CALCULATION
------------------------------------------------------------------------------

 ... reading COSX grid (gridx3)
Gradient of the Kohn-Sham DFT energy:
Kohn-Sham wavefunction type      ... UKS
Hartree-Fock exchange scaling    ...    0.158
Number of operators              ...    2
Number of atoms                  ...    2
Basis set dimensions             ...   43
Integral neglect threshold       ... 2.5e-11
Integral primitive cutoff        ... 2.5e-12
SHARK Integral package           ... ON

Nuc. rep. gradient       (SHARK) ... done (  0.0 sec)
HCore & Overlap gradient (SHARK) ... done (  0.0 sec)
RI-J gradient            (SHARK) ... done (  0.3 sec)
COSX-gradient                    ... done (  1.1 sec)
Exchange-correlation gradient    ... done

------------------
CARTESIAN GRADIENT
------------------

   1   P   :    0.007491123   -0.000802959    0.000000011
   2   H   :   -0.007487427    0.000838618    0.000000010

Difference to translation invariance:
           :    0.0000036962    0.0000356588    0.0000000214

Difference to rotation invariance:
           :    0.0000000147    0.0000001369   -0.0003428299

Norm of the cartesian gradient     ...    0.0106548819
RMS gradient                       ...    0.0043498373
MAX gradient                       ...    0.0074911231

-------
TIMINGS
-------

Total SCF gradient time            ...        2.180 sec

One electron gradient       ....       0.006 sec  (  0.3%)
RI-J Coulomb gradient       ....       0.327 sec  ( 15.0%)
COSX gradient               ....       1.143 sec  ( 52.4%)
XC gradient                 ....       0.485 sec  ( 22.2%)

Maximum memory used throughout the entire SCFGRAD-calculation: 35.6 MB
------------------------------------------------------------------------------
                         ORCA GEOMETRY RELAXATION STEP
------------------------------------------------------------------------------

Reading the OPT-File                    .... done
Getting information on internals        .... done
Copying old internal coords+grads       .... done
Making the new internal coordinates     .... (new redundants).... done
Validating the new internal coordinates .... (new redundants).... done
Calculating the B-matrix                .... done
Calculating the G,G- and P matrices     .... done
Transforming gradient to internals      .... done
Projecting the internal gradient        .... done
Number of atoms                         ....   2
Number of internal coordinates          ....   1
Current Energy                          ....  -341.502733164 Eh
Current gradient norm                   ....     0.010654882 Eh/bohr
Maximum allowed component of the step   ....  0.300
Current trust radius                    ....  0.300
Evaluating the initial hessian          ....  (Almloef) done
Projecting the Hessian                  .... done
Forming the augmented Hessian           .... done
Diagonalizing the augmented Hessian     .... done
Last element of RFO vector              ....  0.999798631
Lowest eigenvalues of augmented Hessian:
 -0.000151218
Length of the computed step             ....  0.020071348
The final length of the internal step   ....  0.020071348
Converting the step to cartesian space:
 Initial RMS(Int)=    0.0200713485
Transforming coordinates:
 Iter   0:  RMS(Cart)=    0.0057940992 RMS(Int)=    0.0200713485
 Iter   1:  RMS(Cart)=    0.0000000000 RMS(Int)=    0.0000000000
done
Storing new coordinates                 .... done

                                .--------------------.
          ----------------------|Geometry convergence|-------------------------
          Item                value                   Tolerance       Converged
          ---------------------------------------------------------------------
          RMS gradient        0.0075339986            0.0001000000      NO
          MAX gradient        0.0075339986            0.0003000000      NO
          RMS step            0.0200713485            0.0020000000      NO
          MAX step            0.0200713485            0.0040000000      NO
          ........................................................
          Max(Bonds)      0.0106      Max(Angles)    0.00
          Max(Dihed)        0.00      Max(Improp)    0.00
          ---------------------------------------------------------------------

The optimization has not yet converged - more geometry cycles are needed


    ---------------------------------------------------------------------------
                         Redundant Internal Coordinates
                            (Angstroem and degrees)

        Definition                    Value    dE/dq     Step     New-Value
    ----------------------------------------------------------------------------
     1. B(H   1,P   0)                1.4088 -0.007534  0.0106    1.4194   
    ----------------------------------------------------------------------------

         *************************************************************
         *                GEOMETRY OPTIMIZATION CYCLE   2            *
         *************************************************************
---------------------------------
CARTESIAN COORDINATES (ANGSTROEM)
---------------------------------
  P     -4.079646    0.443958    0.000000
  H     -2.669554    0.281382    0.000000

----------------------------
CARTESIAN COORDINATES (A.U.)
----------------------------
  NO LB      ZA    FRAG     MASS         X           Y           Z
   0 P    15.0000    0    30.974   -7.709413    0.838960    0.000000
   1 H     1.0000    0     1.008   -5.044727    0.531734    0.000000

--------------------------------
INTERNAL COORDINATES (ANGSTROEM)
--------------------------------
 P      0   0   0     0.000000000000     0.00000000     0.00000000
 H      1   0   0     1.419432593840     0.00000000     0.00000000

---------------------------
INTERNAL COORDINATES (A.U.)
---------------------------
 P      0   0   0     0.000000000000     0.00000000     0.00000000
 H      1   0   0     2.682338867920     0.00000000     0.00000000

------------------------------------------------------------------------------
                   ___                                                        
                  /   \      - P O W E R E D   B Y -                         
                 /     \                                                     
                 |  |  |   _    _      __       _____    __    __             
                 |  |  |  | |  | |    /  \     |  _  \  |  |  /  |          
                  \  \/   | |  | |   /    \    | | | |  |  | /  /          
                 / \  \   | |__| |  /  /\  \   | |_| |  |  |/  /          
                |  |  |   |  __  | /  /__\  \  |    /   |      \           
                |  |  |   | |  | | |   __   |  |    \   |  |\   \          
                \     /   | |  | | |  |  |  |  | |\  \  |  | \   \       
                 \___/    |_|  |_| |__|  |__|  |_| \__\ |__|  \__/        
                                                                              
                      - O R C A' S   B I G   F R I E N D -                    
                                      &                                       
                       - I N T E G R A L  F E E D E R -                       
                                                                              
 v1 FN, 2020, v2 2021                                                         
------------------------------------------------------------------------------


Reading SHARK input file ph+.SHARKINP.tmp ... ok
----------------------
SHARK INTEGRAL PACKAGE
----------------------

Number of atoms                             ...      2
Number of basis functions                   ...     43
Number of shells                            ...     17
Maximum angular momentum                    ...      3
Integral batch strategy                     ... SHARK/LIBINT Hybrid
RI-J (if used) integral strategy            ... SPLIT-RIJ (Revised 2003 algorithm where possible)
Printlevel                                  ...      1
Contraction scheme used                     ... SEGMENTED contraction
Coulomb Range Separation                    ... NOT USED
Exchange Range Separation                   ... Long Range
   Mu parameter                             ...  0.300000
   Scaling (regular/separated)              ...  0.157706  0.842294
Finite Nucleus Model                        ... NOT USED
Auxiliary Coulomb fitting basis             ... AVAILABLE
   # of basis functions in Aux-J            ...     62
   # of shells in Aux-J                     ...     22
   Maximum angular momentum in Aux-J        ...      4
Auxiliary J/K fitting basis                 ... NOT available
Auxiliary Correlation fitting basis         ... NOT available
Auxiliary 'external' fitting basis          ... NOT available
Integral threshold                          ...     2.500000e-11
Primitive cut-off                           ...     2.500000e-12
Primitive pair pre-selection threshold      ...     2.500000e-12

Calculating pre-screening integrals         ... done (  0.1 sec) Dimension = 17
Organizing shell pair data                  ... done (  0.0 sec)
Shell pair information
Total number of shell pairs                 ...       153
Shell pairs after pre-screening             ...       153
Total number of primitive shell pairs       ...       600
Primitive shell pairs kept                  ...       573
          la=0 lb=0:     36 shell pairs
          la=1 lb=0:     48 shell pairs
          la=1 lb=1:     21 shell pairs
          la=2 lb=0:     16 shell pairs
          la=2 lb=1:     12 shell pairs
          la=2 lb=2:      3 shell pairs
          la=3 lb=0:      8 shell pairs
          la=3 lb=1:      6 shell pairs
          la=3 lb=2:      2 shell pairs
          la=3 lb=3:      1 shell pairs

Calculating one electron integrals          ... done (  0.0 sec)
Calculating RI/J V-Matrix + Cholesky decomp.... done (  0.0 sec)
Calculating Nuclear repulsion               ... done (  0.0 sec) ENN=      5.592134602901 Eh

SHARK setup successfully completed in   0.2 seconds

Maximum memory used throughout the entire GTOINT-calculation: 15.2 MB

Diagonalization of the overlap matrix:
Smallest eigenvalue                        ... 2.148e-02
Time for diagonalization                   ...    0.003 sec
Threshold for overlap eigenvalues          ... 1.000e-08
Number of eigenvalues below threshold      ... 0
Time for construction of square roots      ...    0.004 sec
Total time needed                          ...    0.007 sec

-------------------
DFT GRID GENERATION
-------------------

General Integration Accuracy     IntAcc      ... 4.388
Radial Grid Type                 RadialGrid  ... OptM3 with GC (2021)
Angular Grid (max. ang.)         AngularGrid ... 4 (Lebedev-302)
Angular grid pruning method      GridPruning ... 4 (adaptive)
Weight generation scheme         WeightScheme... Becke
Basis function cutoff            BFCut       ... 1.0000e-11
Integration weight cutoff        WCut        ... 1.0000e-14
Angular grids for H and He will be reduced by one unit
Partially contracted basis set               ... off
Rotationally invariant grid construction     ... off

Total number of grid points                  ...    10693
Total number of batches                      ...      168
Average number of points per batch           ...       63
Average number of grid points per atom       ...     5347
Time for grid setup =    0.108 sec

--------------------
COSX GRID GENERATION
--------------------

GRIDX 1
-------
General Integration Accuracy     IntAcc      ... 3.816
Radial Grid Type                 RadialGrid  ... OptM3 with GC (2021)
Angular Grid (max. ang.)         AngularGrid ... 1 (Lebedev-50)
Angular grid pruning method      GridPruning ... 4 (adaptive)
Weight generation scheme         WeightScheme... Becke
Basis function cutoff            BFCut       ... 1.0000e-11
Integration weight cutoff        WCut        ... 1.0000e-14
Angular grids for H and He will be reduced by one unit
Partially contracted basis set               ... on
Rotationally invariant grid construction     ... off

Total number of grid points                  ...     1286
Total number of batches                      ...       21
Average number of points per batch           ...       61
Average number of grid points per atom       ...      643
UseSFitting                                  ... on

GRIDX 2
-------
General Integration Accuracy     IntAcc      ... 4.020
Radial Grid Type                 RadialGrid  ... OptM3 with GC (2021)
Angular Grid (max. ang.)         AngularGrid ... 2 (Lebedev-110)
Angular grid pruning method      GridPruning ... 4 (adaptive)
Weight generation scheme         WeightScheme... Becke
Basis function cutoff            BFCut       ... 1.0000e-11
Integration weight cutoff        WCut        ... 1.0000e-14
Angular grids for H and He will be reduced by one unit
Partially contracted basis set               ... on
Rotationally invariant grid construction     ... off

Total number of grid points                  ...     2792
Total number of batches                      ...       45
Average number of points per batch           ...       62
Average number of grid points per atom       ...     1396
UseSFitting                                  ... on

GRIDX 3
-------
General Integration Accuracy     IntAcc      ... 4.338
Radial Grid Type                 RadialGrid  ... OptM3 with GC (2021)
Angular Grid (max. ang.)         AngularGrid ... 3 (Lebedev-194)
Angular grid pruning method      GridPruning ... 4 (adaptive)
Weight generation scheme         WeightScheme... Becke
Basis function cutoff            BFCut       ... 1.0000e-11
Integration weight cutoff        WCut        ... 1.0000e-14
Angular grids for H and He will be reduced by one unit
Partially contracted basis set               ... on
Rotationally invariant grid construction     ... off

Total number of grid points                  ...     6825
Total number of batches                      ...      108
Average number of points per batch           ...       63
Average number of grid points per atom       ...     3413
UseSFitting                                  ... on

Time for X-Grid setup             =    0.091 sec

--------------
SCF ITERATIONS
--------------
ITER       Energy         Delta-E        Max-DP      RMS-DP      [F,P]     Damp
               ***  Starting incremental Fock matrix formation  ***
  0   -341.5028268077   0.000000000000 0.00020664  0.00001294  0.0035515 0.7000
  1   -341.5028301110  -0.000003303252 0.00019341  0.00001160  0.0027186 0.7000
                               ***Turning on DIIS***
  2   -341.5028326352  -0.000002524177 0.00052475  0.00003067  0.0020089 0.0000
  3   -341.5028390941  -0.000006458882 0.00030218  0.00001195  0.0002596 0.0000
               *** Restarting incremental Fock matrix formation ***
                                   *** Resetting DIIS ***
  4   -341.5028392450  -0.000000150934 0.00009797  0.00000339  0.0000686 0.0000
  5   -341.5028392600  -0.000000015027 0.00002761  0.00000109  0.0000172 0.0000
  6   -341.5028392613  -0.000000001308 0.00001004  0.00000038  0.0000048 0.0000
                 **** Energy Check signals convergence ****

               *****************************************************
               *                     SUCCESS                       *
               *           SCF CONVERGED AFTER   7 CYCLES          *
               *****************************************************

Old exchange energy                            =     -5.604391718 Eh
New exchange energy                            =     -5.604389701 Eh
Exchange energy change after final integration =      0.000002017 Eh
Total energy after final integration           =   -341.502837245 Eh
Final COS-X integration done in                =     0.701 sec
Total Energy       :         -341.50283724 Eh           -9292.76464 eV
  Last Energy change         ...   -4.7112e-10  Tolerance :   1.0000e-08
  Last MAX-Density change    ...    0.0000e+00  Tolerance :   1.0000e-07
             **** THE GBW FILE WAS UPDATED (ph+.gbw) ****
             **** DENSITY ph+.scfp WAS UPDATED ****
             **** ENERGY FILE WAS UPDATED (ph+.en.tmp) ****
----------------------
UHF SPIN CONTAMINATION
----------------------

Warning: in a DFT calculation there is little theoretical justification to 
         calculate <S**2> as in Hartree-Fock theory. We will do it anyways
         but you should keep in mind that the values have only limited relevance

Expectation value of <S**2>     :     0.754695
Ideal value S*(S+1) for S=0.5   :     0.750000
Deviation                       :     0.004695

             **** THE GBW FILE WAS UPDATED (ph+.gbw) ****
             **** DENSITY ph+.scfp WAS UPDATED ****
Total SCF time: 0 days 0 hours 0 min 5 sec 

Maximum memory used throughout the entire SCF-calculation: 60.6 MB

-------------------------   --------------------
FINAL SINGLE POINT ENERGY      -341.502837244656
-------------------------   --------------------

------------------------------------------------------------------------------
                         ORCA SCF GRADIENT CALCULATION
------------------------------------------------------------------------------

 ... reading COSX grid (gridx3)
Gradient of the Kohn-Sham DFT energy:
Kohn-Sham wavefunction type      ... UKS
Hartree-Fock exchange scaling    ...    0.158
Number of operators              ...    2
Number of atoms                  ...    2
Basis set dimensions             ...   43
Integral neglect threshold       ... 2.5e-11
Integral primitive cutoff        ... 2.5e-12
SHARK Integral package           ... ON

Nuc. rep. gradient       (SHARK) ... done (  0.0 sec)
HCore & Overlap gradient (SHARK) ... done (  0.0 sec)
RI-J gradient            (SHARK) ... done (  0.2 sec)
COSX-gradient                    ... done (  1.1 sec)
Exchange-correlation gradient    ... done

------------------
CARTESIAN GRADIENT
------------------

   1   P   :    0.002857296   -0.000266052    0.000000018
   2   H   :   -0.002854730    0.000302725    0.000000008

Difference to translation invariance:
           :    0.0000025657    0.0000366732    0.0000000263

Difference to rotation invariance:
           :    0.0000000195    0.0000001810   -0.0003552587

Norm of the cartesian gradient     ...    0.0040590697
RMS gradient                       ...    0.0016571083
MAX gradient                       ...    0.0028572956

-------
TIMINGS
-------

Total SCF gradient time            ...        1.987 sec

One electron gradient       ....       0.008 sec  (  0.4%)
RI-J Coulomb gradient       ....       0.168 sec  (  8.5%)
COSX gradient               ....       1.134 sec  ( 57.1%)
XC gradient                 ....       0.479 sec  ( 24.1%)

Maximum memory used throughout the entire SCFGRAD-calculation: 35.6 MB
------------------------------------------------------------------------------
                         ORCA GEOMETRY RELAXATION STEP
------------------------------------------------------------------------------

Reading the OPT-File                    .... done
Getting information on internals        .... done
Copying old internal coords+grads       .... done
Making the new internal coordinates     .... (new redundants).... done
Validating the new internal coordinates .... (new redundants).... done
Calculating the B-matrix                .... done
Calculating the G,G- and P matrices     .... done
Transforming gradient to internals      .... done
Projecting the internal gradient        .... done
Number of atoms                         ....   2
Number of internal coordinates          ....   1
Current Energy                          ....  -341.502837245 Eh
Current gradient norm                   ....     0.004059070 Eh/bohr
Maximum allowed component of the step   ....  0.300
Current trust radius                    ....  0.300
Updating the Hessian (BFGS)             .... done
Forming the augmented Hessian           .... done
Diagonalizing the augmented Hessian     .... done
Last element of RFO vector              ....  0.999923777
Lowest eigenvalues of augmented Hessian:
 -0.000035435
Length of the computed step             ....  0.012347600
The final length of the internal step   ....  0.012347600
Converting the step to cartesian space:
 Initial RMS(Int)=    0.0123476001
Transforming coordinates:
 Iter   0:  RMS(Cart)=    0.0035644451 RMS(Int)=    0.0123476001
 Iter   1:  RMS(Cart)=    0.0000000000 RMS(Int)=    0.0000000000
done
Storing new coordinates                 .... done

                                .--------------------.
          ----------------------|Geometry convergence|-------------------------
          Item                value                   Tolerance       Converged
          ---------------------------------------------------------------------
          Energy change      -0.0001040803            0.0000050000      NO
          RMS gradient        0.0028697903            0.0001000000      NO
          MAX gradient        0.0028697903            0.0003000000      NO
          RMS step            0.0123476001            0.0020000000      NO
          MAX step            0.0123476001            0.0040000000      NO
          ........................................................
          Max(Bonds)      0.0065      Max(Angles)    0.00
          Max(Dihed)        0.00      Max(Improp)    0.00
          ---------------------------------------------------------------------

The optimization has not yet converged - more geometry cycles are needed


    ---------------------------------------------------------------------------
                         Redundant Internal Coordinates
                            (Angstroem and degrees)

        Definition                    Value    dE/dq     Step     New-Value
    ----------------------------------------------------------------------------
     1. B(H   1,P   0)                1.4194 -0.002870  0.0065    1.4260   
    ----------------------------------------------------------------------------

         *************************************************************
         *                GEOMETRY OPTIMIZATION CYCLE   3            *
         *************************************************************
---------------------------------
CARTESIAN COORDINATES (ANGSTROEM)
---------------------------------
  P     -4.082891    0.444332    0.000000
  H     -2.666309    0.281008    0.000000

----------------------------
CARTESIAN COORDINATES (A.U.)
----------------------------
  NO LB      ZA    FRAG     MASS         X           Y           Z
   0 P    15.0000    0    30.974   -7.715546    0.839667    0.000000
   1 H     1.0000    0     1.008   -5.038593    0.531027    0.000000

--------------------------------
INTERNAL COORDINATES (ANGSTROEM)
--------------------------------
 P      0   0   0     0.000000000000     0.00000000     0.00000000
 H      1   0   0     1.425966662404     0.00000000     0.00000000

---------------------------
INTERNAL COORDINATES (A.U.)
---------------------------
 P      0   0   0     0.000000000000     0.00000000     0.00000000
 H      1   0   0     2.694686468045     0.00000000     0.00000000

------------------------------------------------------------------------------
                   ___                                                        
                  /   \      - P O W E R E D   B Y -                         
                 /     \                                                     
                 |  |  |   _    _      __       _____    __    __             
                 |  |  |  | |  | |    /  \     |  _  \  |  |  /  |          
                  \  \/   | |  | |   /    \    | | | |  |  | /  /          
                 / \  \   | |__| |  /  /\  \   | |_| |  |  |/  /          
                |  |  |   |  __  | /  /__\  \  |    /   |      \           
                |  |  |   | |  | | |   __   |  |    \   |  |\   \          
                \     /   | |  | | |  |  |  |  | |\  \  |  | \   \       
                 \___/    |_|  |_| |__|  |__|  |_| \__\ |__|  \__/        
                                                                              
                      - O R C A' S   B I G   F R I E N D -                    
                                      &                                       
                       - I N T E G R A L  F E E D E R -                       
                                                                              
 v1 FN, 2020, v2 2021                                                         
------------------------------------------------------------------------------


Reading SHARK input file ph+.SHARKINP.tmp ... ok
----------------------
SHARK INTEGRAL PACKAGE
----------------------

Number of atoms                             ...      2
Number of basis functions                   ...     43
Number of shells                            ...     17
Maximum angular momentum                    ...      3
Integral batch strategy                     ... SHARK/LIBINT Hybrid
RI-J (if used) integral strategy            ... SPLIT-RIJ (Revised 2003 algorithm where possible)
Printlevel                                  ...      1
Contraction scheme used                     ... SEGMENTED contraction
Coulomb Range Separation                    ... NOT USED
Exchange Range Separation                   ... Long Range
   Mu parameter                             ...  0.300000
   Scaling (regular/separated)              ...  0.157706  0.842294
Finite Nucleus Model                        ... NOT USED
Auxiliary Coulomb fitting basis             ... AVAILABLE
   # of basis functions in Aux-J            ...     62
   # of shells in Aux-J                     ...     22
   Maximum angular momentum in Aux-J        ...      4
Auxiliary J/K fitting basis                 ... NOT available
Auxiliary Correlation fitting basis         ... NOT available
Auxiliary 'external' fitting basis          ... NOT available
Integral threshold                          ...     2.500000e-11
Primitive cut-off                           ...     2.500000e-12
Primitive pair pre-selection threshold      ...     2.500000e-12

Calculating pre-screening integrals         ... done (  0.1 sec) Dimension = 17
Organizing shell pair data                  ... done (  0.0 sec)
Shell pair information
Total number of shell pairs                 ...       153
Shell pairs after pre-screening             ...       153
Total number of primitive shell pairs       ...       600
Primitive shell pairs kept                  ...       573
          la=0 lb=0:     36 shell pairs
          la=1 lb=0:     48 shell pairs
          la=1 lb=1:     21 shell pairs
          la=2 lb=0:     16 shell pairs
          la=2 lb=1:     12 shell pairs
          la=2 lb=2:      3 shell pairs
          la=3 lb=0:      8 shell pairs
          la=3 lb=1:      6 shell pairs
          la=3 lb=2:      2 shell pairs
          la=3 lb=3:      1 shell pairs

Calculating one electron integrals          ... done (  0.0 sec)
Calculating RI/J V-Matrix + Cholesky decomp.... done (  0.0 sec)
Calculating Nuclear repulsion               ... done (  0.0 sec) ENN=      5.566510307554 Eh

SHARK setup successfully completed in   0.2 seconds

Maximum memory used throughout the entire GTOINT-calculation: 15.2 MB

Diagonalization of the overlap matrix:
Smallest eigenvalue                        ... 2.185e-02
Time for diagonalization                   ...    0.002 sec
Threshold for overlap eigenvalues          ... 1.000e-08
Number of eigenvalues below threshold      ... 0
Time for construction of square roots      ...    0.002 sec
Total time needed                          ...    0.004 sec

-------------------
DFT GRID GENERATION
-------------------

General Integration Accuracy     IntAcc      ... 4.388
Radial Grid Type                 RadialGrid  ... OptM3 with GC (2021)
Angular Grid (max. ang.)         AngularGrid ... 4 (Lebedev-302)
Angular grid pruning method      GridPruning ... 4 (adaptive)
Weight generation scheme         WeightScheme... Becke
Basis function cutoff            BFCut       ... 1.0000e-11
Integration weight cutoff        WCut        ... 1.0000e-14
Angular grids for H and He will be reduced by one unit
Partially contracted basis set               ... off
Rotationally invariant grid construction     ... off

Total number of grid points                  ...    10693
Total number of batches                      ...      169
Average number of points per batch           ...       63
Average number of grid points per atom       ...     5347
Time for grid setup =    0.115 sec

--------------------
COSX GRID GENERATION
--------------------

GRIDX 1
-------
General Integration Accuracy     IntAcc      ... 3.816
Radial Grid Type                 RadialGrid  ... OptM3 with GC (2021)
Angular Grid (max. ang.)         AngularGrid ... 1 (Lebedev-50)
Angular grid pruning method      GridPruning ... 4 (adaptive)
Weight generation scheme         WeightScheme... Becke
Basis function cutoff            BFCut       ... 1.0000e-11
Integration weight cutoff        WCut        ... 1.0000e-14
Angular grids for H and He will be reduced by one unit
Partially contracted basis set               ... on
Rotationally invariant grid construction     ... off

Total number of grid points                  ...     1286
Total number of batches                      ...       21
Average number of points per batch           ...       61
Average number of grid points per atom       ...      643
UseSFitting                                  ... on

GRIDX 2
-------
General Integration Accuracy     IntAcc      ... 4.020
Radial Grid Type                 RadialGrid  ... OptM3 with GC (2021)
Angular Grid (max. ang.)         AngularGrid ... 2 (Lebedev-110)
Angular grid pruning method      GridPruning ... 4 (adaptive)
Weight generation scheme         WeightScheme... Becke
Basis function cutoff            BFCut       ... 1.0000e-11
Integration weight cutoff        WCut        ... 1.0000e-14
Angular grids for H and He will be reduced by one unit
Partially contracted basis set               ... on
Rotationally invariant grid construction     ... off

Total number of grid points                  ...     2792
Total number of batches                      ...       45
Average number of points per batch           ...       62
Average number of grid points per atom       ...     1396
UseSFitting                                  ... on

GRIDX 3
-------
General Integration Accuracy     IntAcc      ... 4.338
Radial Grid Type                 RadialGrid  ... OptM3 with GC (2021)
Angular Grid (max. ang.)         AngularGrid ... 3 (Lebedev-194)
Angular grid pruning method      GridPruning ... 4 (adaptive)
Weight generation scheme         WeightScheme... Becke
Basis function cutoff            BFCut       ... 1.0000e-11
Integration weight cutoff        WCut        ... 1.0000e-14
Angular grids for H and He will be reduced by one unit
Partially contracted basis set               ... on
Rotationally invariant grid construction     ... off

Total number of grid points                  ...     6825
Total number of batches                      ...      108
Average number of points per batch           ...       63
Average number of grid points per atom       ...     3413
UseSFitting                                  ... on

Time for X-Grid setup             =    0.093 sec

--------------
SCF ITERATIONS
--------------
ITER       Energy         Delta-E        Max-DP      RMS-DP      [F,P]     Damp
               ***  Starting incremental Fock matrix formation  ***
  0   -341.5028529000   0.000000000000 0.00012602  0.00000788  0.0021631 0.7000
  1   -341.5028541319  -0.000001231895 0.00011802  0.00000708  0.0016564 0.7000
                               ***Turning on DIIS***
  2   -341.5028550752  -0.000000943234 0.00032037  0.00001872  0.0012246 0.0000
  3   -341.5028574931  -0.000002417885 0.00018618  0.00000735  0.0001594 0.0000
               *** Restarting incremental Fock matrix formation ***
                                   *** Resetting DIIS ***
  4   -341.5028575325  -0.000000039472 0.00006014  0.00000208  0.0000418 0.0000
  5   -341.5028575383  -0.000000005729 0.00001689  0.00000068  0.0000105 0.0000
  6   -341.5028575387  -0.000000000448 0.00000613  0.00000024  0.0000029 0.0000
                 **** Energy Check signals convergence ****

               *****************************************************
               *                     SUCCESS                       *
               *           SCF CONVERGED AFTER   7 CYCLES          *
               *****************************************************

Old exchange energy                            =     -5.603912614 Eh
New exchange energy                            =     -5.603910672 Eh
Exchange energy change after final integration =      0.000001941 Eh
Total energy after final integration           =   -341.502855598 Eh
Final COS-X integration done in                =     0.745 sec
Total Energy       :         -341.50285560 Eh           -9292.76514 eV
  Last Energy change         ...   -3.4038e-10  Tolerance :   1.0000e-08
  Last MAX-Density change    ...    0.0000e+00  Tolerance :   1.0000e-07
             **** THE GBW FILE WAS UPDATED (ph+.gbw) ****
             **** DENSITY ph+.scfp WAS UPDATED ****
             **** ENERGY FILE WAS UPDATED (ph+.en.tmp) ****
----------------------
UHF SPIN CONTAMINATION
----------------------

Warning: in a DFT calculation there is little theoretical justification to 
         calculate <S**2> as in Hartree-Fock theory. We will do it anyways
         but you should keep in mind that the values have only limited relevance

Expectation value of <S**2>     :     0.754698
Ideal value S*(S+1) for S=0.5   :     0.750000
Deviation                       :     0.004698

             **** THE GBW FILE WAS UPDATED (ph+.gbw) ****
             **** DENSITY ph+.scfp WAS UPDATED ****
Total SCF time: 0 days 0 hours 0 min 5 sec 

Maximum memory used throughout the entire SCF-calculation: 60.6 MB

-------------------------   --------------------
FINAL SINGLE POINT ENERGY      -341.502855597784
-------------------------   --------------------

------------------------------------------------------------------------------
                         ORCA SCF GRADIENT CALCULATION
------------------------------------------------------------------------------

 ... reading COSX grid (gridx3)
Gradient of the Kohn-Sham DFT energy:
Kohn-Sham wavefunction type      ... UKS
Hartree-Fock exchange scaling    ...    0.158
Number of operators              ...    2
Number of atoms                  ...    2
Basis set dimensions             ...   43
Integral neglect threshold       ... 2.5e-11
Integral primitive cutoff        ... 2.5e-12
SHARK Integral package           ... ON

Nuc. rep. gradient       (SHARK) ... done (  0.0 sec)
HCore & Overlap gradient (SHARK) ... done (  0.0 sec)
RI-J gradient            (SHARK) ... done (  0.2 sec)
COSX-gradient                    ... done (  0.7 sec)
Exchange-correlation gradient    ... done

------------------
CARTESIAN GRADIENT
------------------

   1   P   :    0.000116792    0.000050917    0.000000030
   2   H   :   -0.000115078   -0.000013639    0.000000006

Difference to translation invariance:
           :    0.0000017148    0.0000372786    0.0000000362

Difference to rotation invariance:
           :    0.0000000285    0.0000002628   -0.0003610925

Norm of the cartesian gradient     ...    0.0001722264
RMS gradient                       ...    0.0000703111
MAX gradient                       ...    0.0001167924

-------
TIMINGS
-------

Total SCF gradient time            ...        1.840 sec

One electron gradient       ....       0.008 sec  (  0.4%)
RI-J Coulomb gradient       ....       0.171 sec  (  9.3%)
COSX gradient               ....       0.736 sec  ( 40.0%)
XC gradient                 ....       0.481 sec  ( 26.1%)

Maximum memory used throughout the entire SCFGRAD-calculation: 35.6 MB
[...]
  30   0.0000       1.135602        30.9013 
  31   0.0000       1.237410        33.6716 
  32   0.0000       1.252156        34.0729 
  33   0.0000       1.264924        34.4203 
  34   0.0000       1.389435        37.8085 
  35   0.0000       1.791944        48.7613 
  36   0.0000       1.807265        49.1782 
  37   0.0000       2.218753        60.3753 
  38   0.0000       2.452019        66.7228 
  39   0.0000       6.918327       188.2572 
  40   0.0000       6.944368       188.9659 
  41   0.0000       7.001610       190.5235 
  42   0.0000      12.974667       353.0586 

                    ********************************
                    * MULLIKEN POPULATION ANALYSIS *
                    ********************************

--------------------------------------------
MULLIKEN ATOMIC CHARGES AND SPIN POPULATIONS
--------------------------------------------
   0 P :    0.783800    1.013751
   1 H :    0.216200   -0.013751
Sum of atomic charges         :    1.0000000
Sum of atomic spin populations:    1.0000000

-----------------------------------------------------
MULLIKEN REDUCED ORBITAL CHARGES AND SPIN POPULATIONS
-----------------------------------------------------
CHARGE
  0 P s       :     5.938233  s :     5.938233
      pz      :     2.995938  p :     8.209188
      px      :     3.197353
      py      :     2.015897
      dz2     :     0.016595  d :     0.065621
      dxz     :     0.001388
      dyz     :     0.000018
      dx2y2   :     0.045155
      dxy     :     0.002465
      f0      :    -0.000002  f :     0.003157
      f+1     :     0.001824
      f-1     :     0.000024
      f+2     :    -0.000004
      f-2     :    -0.000000
      f+3     :     0.001166
      f-3     :     0.000149
  1 H s       :     0.768024  s :     0.768024
      pz      :     0.002662  p :     0.015776
      px      :     0.012936
      py      :     0.000178

SPIN
  0 P s       :     0.009573  s :     0.009573
      pz      :     0.995944  p :     1.002580
      px      :     0.006556
      py      :     0.000080
      dz2     :     0.001466  d :     0.002863
      dxz     :     0.001387
      dyz     :     0.000018
      dx2y2   :    -0.000008
      dxy     :    -0.000001
      f0      :    -0.000003  f :    -0.001266
      f+1     :    -0.001170
      f-1     :    -0.000016
      f+2     :    -0.000004
      f-2     :    -0.000000
      f+3     :    -0.000065
      f-3     :    -0.000008
  1 H s       :    -0.016597  s :    -0.016597
      pz      :     0.002658  p :     0.002847
      px      :     0.000187
      py      :     0.000003


                     *******************************
                     * LOEWDIN POPULATION ANALYSIS *
                     *******************************

-------------------------------------------
LOEWDIN ATOMIC CHARGES AND SPIN POPULATIONS
-------------------------------------------
   0 P :    0.954397    1.004919
   1 H :    0.045603   -0.004919

----------------------------------------------------
LOEWDIN REDUCED ORBITAL CHARGES AND SPIN POPULATIONS
----------------------------------------------------
CHARGE
  0 P s       :     5.741986  s :     5.741986
      pz      :     2.991044  p :     8.221178
      px      :     3.214010
      py      :     2.016124
      dz2     :     0.019083  d :     0.075626
      dxz     :     0.001036
      dyz     :     0.000014
      dx2y2   :     0.052620
      dxy     :     0.002873
      f0      :     0.000013  f :     0.006814
      f+1     :     0.003070
      f-1     :     0.000041
      f+2     :     0.000027
      f-2     :     0.000001
      f+3     :     0.003244
      f-3     :     0.000417
  1 H s       :     0.900147  s :     0.900147
      pz      :     0.007864  p :     0.054249
      px      :     0.045776
      py      :     0.000609

SPIN
  0 P s       :     0.010197  s :     0.010197
      pz      :     0.991046  p :     0.992586
      px      :     0.001526
      py      :     0.000014
      dz2     :     0.002832  d :     0.003269
      dxz     :     0.001035
      dyz     :     0.000014
      dx2y2   :    -0.000580
      dxy     :    -0.000032
      f0      :     0.000013  f :    -0.001133
      f+1     :    -0.001002
      f-1     :    -0.000014
      f+2     :     0.000027
      f-2     :     0.000001
      f+3     :    -0.000141
      f-3     :    -0.000018
  1 H s       :    -0.013790  s :    -0.013790
      pz      :     0.007864  p :     0.008871
      px      :     0.000993
      py      :     0.000013


                      *****************************
                      * MAYER POPULATION ANALYSIS *
                      *****************************

  NA   - Mulliken gross atomic population
  ZA   - Total nuclear charge
  QA   - Mulliken gross atomic charge
  VA   - Mayer's total valence
  BVA  - Mayer's bonded valence
  FA   - Mayer's free valence

  ATOM       NA         ZA         QA         VA         BVA        FA
  0 P     14.2162    15.0000     0.7838     1.9280     0.9243     1.0037
  1 H      0.7838     1.0000     0.2162     0.9246     0.9243     0.0003

  Mayer bond orders larger than 0.100000
B(  0-P ,  1-H ) :   0.9243 

-------
TIMINGS
-------

Total SCF time: 0 days 0 hours 0 min 3 sec 

Total time                  ....       3.603 sec
Sum of individual times     ....       3.447 sec  ( 95.7%)

Fock matrix formation       ....       3.214 sec  ( 89.2%)
  Split-RI-J                ....       0.286 sec  (  8.9% of F)
  Chain of spheres X        ....       2.240 sec  ( 69.7% of F)
  XC integration            ....       0.687 sec  ( 21.4% of F)
    Basis function eval.    ....       0.129 sec  ( 18.8% of XC)
    Density eval.           ....       0.156 sec  ( 22.7% of XC)
    XC-Functional eval.     ....       0.203 sec  ( 29.5% of XC)
    XC-Potential eval.      ....       0.121 sec  ( 17.6% of XC)
Diagonalization             ....       0.006 sec  (  0.2%)
Density matrix formation    ....       0.001 sec  (  0.0%)
Population analysis         ....       0.019 sec  (  0.5%)
Initial guess               ....       0.002 sec  (  0.1%)
Orbital Transformation      ....       0.000 sec  (  0.0%)
Orbital Orthonormalization  ....       0.000 sec  (  0.0%)
DIIS solution               ....       0.002 sec  (  0.1%)
Grid generation             ....       0.203 sec  (  5.6%)

Maximum memory used throughout the entire SCF-calculation: 60.6 MB

-------------------------   --------------------
FINAL SINGLE POINT ENERGY      -341.502855627265
-------------------------   --------------------

                                *** OPTIMIZATION RUN DONE ***

                            ***************************************
                            *     ORCA property calculations      *
                            ***************************************

                                    ---------------------
                                    Active property flags
                                    ---------------------
   (+) Dipole Moment


------------------------------------------------------------------------------
                       ORCA ELECTRIC PROPERTIES CALCULATION
------------------------------------------------------------------------------

Dipole Moment Calculation                       ... on
Quadrupole Moment Calculation                   ... off
Polarizability Calculation                      ... off
GBWName                                         ... ph+.gbw
Electron density                                ... ph+.scfp
The origin for moment calculation is the CENTER OF MASS  = (-7.631407,  0.829966  0.000000)

-------------
DIPOLE MOMENT
-------------
                                X             Y             Z
Electronic contribution:     -0.96352       0.11106      -0.00000
Nuclear contribution   :      1.32726      -0.15303       0.00000
                        -----------------------------------------
Total Dipole Moment    :      0.36374      -0.04197      -0.00000
                        -----------------------------------------
Magnitude (a.u.)       :      0.36615
Magnitude (Debye)      :      0.93069



--------------------
Rotational spectrum 
--------------------
 
Rotational constants in cm-1:     0.000000     8.489168     8.489168 
Rotational constants in MHz :     0.000000 254498.845530 254498.845530 

 Dipole components along the rotational axes: 
x,y,z [a.u.] :    -0.366153    -0.000032    -0.000000 
x,y,z [Debye]:    -0.930687    -0.000080    -0.000000 

 

-------------------------------------------------------------------------------
                               ORCA SCF HESSIAN
-------------------------------------------------------------------------------

                   --------- SHARK INITIALIZATION DONE ---------

Hessian of the Kohn-Sham DFT energy:
Kohn-Sham wavefunction type                      ... UKS
Hartree-Fock exchange scaling                    ...    0.158
Number of operators                              ...    2
Number of atoms                                  ...    2
Basis set dimensions                             ...   43
Integral neglect threshold                       ... 2.5e-11
Integral primitive cutoff                        ... 2.5e-12

Setting up DFT Hessian calculations              ... 

HESS GRID
---------

General Integration Accuracy     IntAcc      ... 4.629
Radial Grid Type                 RadialGrid  ... OptM3 with GC (2021)
Angular Grid (max. ang.)         AngularGrid ... 5 (Lebedev-434)
Angular grid pruning method      GridPruning ... 4 (adaptive)
Weight generation scheme         WeightScheme... Becke
Basis function cutoff            BFCut       ... 1.0000e-11
Integration weight cutoff        WCut        ... 1.0000e-14
Angular grids for H and He will be reduced by one unit
Partially contracted basis set               ... off
Rotationally invariant grid construction     ... off

Total number of grid points                  ...    15717
Total number of batches                      ...      247
Average number of points per batch           ...       63
Average number of grid points per atom       ...     7859

Building densities                               ... done   (      0.0 sec)
Calculating rho(r) on the grid                   ... done   (      0.1 sec)
Building xc-kernel on the grid                   ... done   (      0.3 sec)
                                                     done   (      0.6 sec)

Nuclear repulsion Hessian  (SHARK)               ... done   (      0.0 sec)

----------------------------------------------
Forming right-hand sides of CP-SCF equations     ...
----------------------------------------------
One electron integral derivatives  (SHARK)       ... done   (      0.0 sec)
Transforming the overlap derivative matrices     ... done   (      0.0 sec)
Making the Q(x) pseudodensities                  ... done   (      0.0 sec)
Adding the E*S(x)*S(y) terms to the Hessian      ... done   (      0.0 sec)
Calculating energy weighted overlap derivatives  ... done   (      0.0 sec)
Two electron integral derivatives (SHARK-RI)     ... done   (      0.6 sec)
Exchange-correlation integral derivatives        ... done   (      2.7 sec)
tr(F(y)Q(x)) contribution to the Hessian         ... done   (      0.0 sec)
Response fock operator R(S(x)) (SHARK-RIJCOSX)   ... done   (      0.8 sec)
XC Response fock operator R(S(x))                ... done   (      0.5 sec)
tr(F(y)S(x)) contribution to the Hessian         ... done   (      0.0 sec)
Transforming and finalizing RHSs                 ... done   (      0.0 sec)

----------------------------------------------
Solving the CP-SCF equations (RIJCOSX)           ...
----------------------------------------------
     CP-SCF ITERATION   0:   8.7301e-02 (   0.4 sec   0/  6 done)
     CP-SCF ITERATION   1:   1.8907e-02 (   0.4 sec   0/  6 done)
     CP-SCF ITERATION   2:   6.7276e-03 (   0.4 sec   0/  6 done)
     CP-SCF ITERATION   3:   1.5912e-03 (   0.4 sec   0/  6 done)
     CP-SCF ITERATION   4:   5.0781e-04 (   0.5 sec   0/  6 done)
     CP-SCF ITERATION   5:   3.8286e-04 (   0.4 sec   2/  6 done)
     CP-SCF ITERATION   6:   1.9092e-03 (   0.4 sec   2/  6 done)
     CP-SCF ITERATION   7:   1.6854e-03 (   0.4 sec   2/  6 done)
     CP-SCF ITERATION   8:   1.5835e-04 (   0.4 sec   4/  6 done)
     CP-SCF ITERATION   9:   2.1808e-05 (   0.4 sec   6/  6 done)
                    *** THE CP-SCF HAS CONVERGED ***

                                                 ... done   (      4.2 sec)
Forming perturbed density Hessian contributions  ... done   (      0.0 sec)
2nd integral derivative contribs (SHARK-RI)      ... done   (      3.7 sec)
Exchange-correlation Hessian                     ... done   (      2.5 sec)
Dipole derivatives                               ... (center of mass: -7.631407,  0.829966  0.000000)done   (      0.2 sec)

Total SCF Hessian time: 0 days 0 hours 0 min 16 sec 

Writing the Hessian file to the disk             ... done


Maximum memory used throughout the entire SCFHESS-calculation: 116.4 MB

-----------------------
VIBRATIONAL FREQUENCIES
-----------------------

Scaling factor for frequencies =  1.000000000  (already applied!)

   0:         0.00 cm**-1
   1:         0.00 cm**-1
   2:         0.00 cm**-1
   3:         0.00 cm**-1
   4:         0.00 cm**-1
   5:      2431.22 cm**-1


------------
NORMAL MODES
------------

These modes are the Cartesian displacements weighted by the diagonal matrix
M(i,i)=1/sqrt(m[i]) where m[i] is the mass of the displaced atom
Thus, these vectors are normalized but *not* orthogonal

                  0          1          2          3          4          5    
      0       0.000000   0.000000   0.000000   0.000000   0.000000   0.032312
      1       0.000000   0.000000   0.000000   0.000000   0.000000  -0.003725
      2       0.000000   0.000000   0.000000   0.000000   0.000000   0.000000
      3       0.000000   0.000000   0.000000   0.000000   0.000000  -0.992893
      4       0.000000   0.000000   0.000000   0.000000   0.000000   0.114476
      5       0.000000   0.000000   0.000000   0.000000   0.000000   0.000000


-----------
IR SPECTRUM
-----------

 Mode   freq       eps      Int      T**2         TX        TY        TZ
       cm**-1   L/(mol*cm) km/mol    a.u.
----------------------------------------------------------------------------
  5:   2431.22   0.000190    0.96  0.000024  (-0.004898  0.000643 -0.000000)

* The epsilon (eps) is given for a Dirac delta lineshape.
** The dipole moment derivative (T) already includes vibrational overlap.

The first frequency considered to be a vibration is 5
The total number of vibrations considered is 1


--------------------------
THERMOCHEMISTRY AT 298.15K
--------------------------

Temperature         ... 298.15 K
Pressure            ... 1.00 atm
Total Mass          ... 31.98 AMU
The molecule is recognized as being linear

Throughout the following assumptions are being made:
  (1) The electronic state is orbitally nondegenerate
      but the spin degeneracy is treated
  (2) There are no thermally accessible electronically excited states
  (3) Hindered rotations indicated by low frequency modes are not
      treated as such but are treated as vibrations and this may
      cause some error
  (4) All equations used are the standard statistical mechanics
      equations for an ideal gas
  (5) All vibrations are strictly harmonic

freq.    2431.22  E(vib)   ...       0.00 

------------
INNER ENERGY
------------

The inner energy is: U= E(el) + E(ZPE) + E(vib) + E(rot) + E(trans)
    E(el)   - is the total energy from the electronic structure calculation
              = E(kin-el) + E(nuc-el) + E(el-el) + E(nuc-nuc)
    E(ZPE)  - the the zero temperature vibrational energy from the frequency calculation
    E(vib)  - the the finite temperature correction to E(ZPE) due to population
              of excited vibrational states
    E(rot)  - is the rotational thermal energy
    E(trans)- is the translational thermal energy

Summary of contributions to the inner energy U:
Electronic energy                ...   -341.50285563 Eh
Zero point energy                ...      0.00553873 Eh       3.48 kcal/mol
Thermal vibrational correction   ...      0.00000009 Eh       0.00 kcal/mol
Thermal rotational correction    ...      0.00094418 Eh       0.59 kcal/mol
Thermal translational correction ...      0.00141627 Eh       0.89 kcal/mol
-----------------------------------------------------------------------
Total thermal energy                   -341.49495635 Eh


Summary of corrections to the electronic energy:
(perhaps to be used in another calculation)
Total thermal correction                  0.00236054 Eh       1.48 kcal/mol
Non-thermal (ZPE) correction              0.00553873 Eh       3.48 kcal/mol
-----------------------------------------------------------------------
Total correction                          0.00789927 Eh       4.96 kcal/mol


--------
ENTHALPY
--------

The enthalpy is H = U + kB*T
                kB is Boltzmann's constant
Total free energy                 ...   -341.49495635 Eh 
Thermal Enthalpy correction       ...      0.00094421 Eh       0.59 kcal/mol
-----------------------------------------------------------------------
Total Enthalpy                    ...   -341.49401214 Eh


Note: Rotational entropy computed according to Herzberg 
Infrared and Raman Spectra, Chapter V,1, Van Nostrand Reinhold, 1945 
Point Group:  Cinfv, Symmetry Number:   1  
Rotational constants in cm-1:     0.000000     8.489168     8.489168 

Vibrational entropy computed according to the QRRHO of S. Grimme
Chem.Eur.J. 2012 18 9955


-------
ENTROPY
-------

The entropy contributions are T*S = T*(S(el)+S(vib)+S(rot)+S(trans))
     S(el)   - electronic entropy
     S(vib)  - vibrational entropy
     S(rot)  - rotational entropy
     S(trans)- translational entropy
The entropies will be listed as multiplied by the temperature to get
units of energy

Electronic entropy                ...      0.00065446 Eh      0.41 kcal/mol
Vibrational entropy               ...      0.00000010 Eh      0.00 kcal/mol
Rotational entropy                ...      0.00396086 Eh      2.49 kcal/mol
Translational entropy             ...      0.01725670 Eh     10.83 kcal/mol
-----------------------------------------------------------------------
Final entropy term                ...      0.02187211 Eh     13.72 kcal/mol


-------------------
GIBBS FREE ENERGY
-------------------

The Gibbs free energy is G = H - T*S

Total enthalpy                    ...   -341.49401214 Eh 
Total entropy correction          ...     -0.02187211 Eh    -13.72 kcal/mol
-----------------------------------------------------------------------
Final Gibbs free energy         ...   -341.51588425 Eh

For completeness - the Gibbs free energy minus the electronic energy
G-E(el)                           ...     -0.01302862 Eh     -8.18 kcal/mol


Timings for individual modules:

Sum of individual times         ...       47.085 sec (=   0.785 min)
GTO integral calculation        ...        0.968 sec (=   0.016 min)   2.1 %
SCF iterations                  ...       22.588 sec (=   0.376 min)  48.0 %
SCF Gradient evaluation         ...        6.241 sec (=   0.104 min)  13.3 %
Geometry relaxation             ...        0.228 sec (=   0.004 min)   0.5 %
Analytical frequency calculation...       17.060 sec (=   0.284 min)  36.2 %
                             ****ORCA TERMINATED NORMALLY****
TOTAL RUN TIME: 0 days 0 hours 0 minutes 47 seconds 624 msec
