
                                 *****************
                                 * O   R   C   A *
                                 *****************

                                            #,                                       
                                            ###                                      
                                            ####                                     
                                            #####                                    
                                            ######                                   
                                           ########,                                 
                                     ,,################,,,,,                         
                               ,,#################################,,                 
                          ,,##########################################,,             
                       ,#########################################, ''#####,          
                    ,#############################################,,   '####,        
                  ,##################################################,,,,####,       
                ,###########''''           ''''###############################       
              ,#####''   ,,,,##########,,,,          '''####'''          '####       
            ,##' ,,,,###########################,,,                        '##       
           ' ,,###''''                  '''############,,,                           
         ,,##''                                '''############,,,,        ,,,,,,###''
      ,#''                                            '''#######################'''  
     '                                                          ''''####''''         
             ,#######,   #######,   ,#######,      ##                                
            ,#'     '#,  ##    ##  ,#'     '#,    #''#        ######   ,####,        
            ##       ##  ##   ,#'  ##            #'  '#       #        #'  '#        
            ##       ##  #######   ##           ,######,      #####,   #    #        
            '#,     ,#'  ##    ##  '#,     ,#' ,#      #,         ##   #,  ,#        
             '#######'   ##     ##  '#######'  #'      '#     #####' # '####'        



                  #######################################################
                  #                        -***-                        #
                  #          Department of theory and spectroscopy      #
                  #    Directorship and core code : Frank Neese         #
                  #        Max Planck Institute fuer Kohlenforschung    #
                  #                Kaiser Wilhelm Platz 1               #
                  #                 D-45470 Muelheim/Ruhr               #
                  #                      Germany                        #
                  #                                                     #
                  #                  All rights reserved                #
                  #                        -***-                        #
                  #######################################################


                         Program Version 5.0.2 -  RELEASE  -


 With contributions from (in alphabetic order):
   Daniel Aravena         : Magnetic Suceptibility
   Michael Atanasov       : Ab Initio Ligand Field Theory (pilot matlab implementation)
   Alexander A. Auer      : GIAO ZORA, VPT2 properties, NMR spectrum
   Ute Becker             : Parallelization
   Giovanni Bistoni       : ED, misc. LED, open-shell LED, HFLD
   Martin Brehm           : Molecular dynamics
   Dmytro Bykov           : SCF Hessian
   Vijay G. Chilkuri      : MRCI spin determinant printing, contributions to CSF-ICE
   Dipayan Datta          : RHF DLPNO-CCSD density
   Achintya Kumar Dutta   : EOM-CC, STEOM-CC
   Dmitry Ganyushin       : Spin-Orbit,Spin-Spin,Magnetic field MRCI
   Miquel Garcia          : C-PCM and meta-GGA Hessian, CC/C-PCM, Gaussian charge scheme
   Yang Guo               : DLPNO-NEVPT2, F12-NEVPT2, CIM, IAO-localization
   Andreas Hansen         : Spin unrestricted coupled pair/coupled cluster methods
   Benjamin Helmich-Paris : MC-RPA, TRAH-SCF, COSX integrals
   Lee Huntington         : MR-EOM, pCC
   Robert Izsak           : Overlap fitted RIJCOSX, COSX-SCS-MP3, EOM
   Marcus Kettner         : VPT2
   Christian Kollmar      : KDIIS, OOCD, Brueckner-CCSD(T), CCSD density, CASPT2, CASPT2-K
   Simone Kossmann        : Meta GGA functionals, TD-DFT gradient, OOMP2, MP2 Hessian
   Martin Krupicka        : Initial AUTO-CI
   Lucas Lang             : DCDCAS
   Marvin Lechner         : AUTO-CI (C++ implementation), FIC-MRCC
   Dagmar Lenk            : GEPOL surface, SMD
   Dimitrios Liakos       : Extrapolation schemes; Compound Job, initial MDCI parallelization
   Dimitrios Manganas     : Further ROCIS development; embedding schemes
   Dimitrios Pantazis     : SARC Basis sets
   Anastasios Papadopoulos: AUTO-CI, single reference methods and gradients
   Taras Petrenko         : DFT Hessian,TD-DFT gradient, ASA, ECA, R-Raman, ABS, FL, XAS/XES, NRVS
   Peter Pinski           : DLPNO-MP2, DLPNO-MP2 Gradient
   Christoph Reimann      : Effective Core Potentials
   Marius Retegan         : Local ZFS, SOC
   Christoph Riplinger    : Optimizer, TS searches, QM/MM, DLPNO-CCSD(T), (RO)-DLPNO pert. Triples
   Tobias Risthaus        : Range-separated hybrids, TD-DFT gradient, RPA, STAB
   Michael Roemelt        : Original ROCIS implementation
   Masaaki Saitow         : Open-shell DLPNO-CCSD energy and density
   Barbara Sandhoefer     : DKH picture change effects
   Avijit Sen             : IP-ROCIS
   Kantharuban Sivalingam : CASSCF convergence, NEVPT2, FIC-MRCI
   Bernardo de Souza      : ESD, SOC TD-DFT
   Georgi Stoychev        : AutoAux, RI-MP2 NMR, DLPNO-MP2 response
   Willem Van den Heuvel  : Paramagnetic NMR
   Boris Wezisla          : Elementary symmetry handling
   Frank Wennmohs         : Technical directorship


 We gratefully acknowledge several colleagues who have allowed us to
 interface, adapt or use parts of their codes:
   Stefan Grimme, W. Hujo, H. Kruse, P. Pracht,  : VdW corrections, initial TS optimization,
                  C. Bannwarth, S. Ehlert          DFT functionals, gCP, sTDA/sTD-DF
   Ed Valeev, F. Pavosevic, A. Kumar             : LibInt (2-el integral package), F12 methods
   Garnet Chan, S. Sharma, J. Yang, R. Olivares  : DMRG
   Ulf Ekstrom                                   : XCFun DFT Library
   Mihaly Kallay                                 : mrcc  (arbitrary order and MRCC methods)
   Jiri Pittner, Ondrej Demel                    : Mk-CCSD
   Frank Weinhold                                : gennbo (NPA and NBO analysis)
   Christopher J. Cramer and Donald G. Truhlar   : smd solvation model
   Lars Goerigk                                  : TD-DFT with DH, B97 family of functionals
   V. Asgeirsson, H. Jonsson                     : NEB implementation
   FAccTs GmbH                                   : IRC, NEB, NEB-TS, DLPNO-Multilevel, CI-OPT
                                                   MM, QMMM, 2- and 3-layer-ONIOM, Crystal-QMMM,
                                                   LR-CPCM, SF, NACMEs, symmetry and pop. for TD-DFT,
                                                   nearIR, NL-DFT gradient (VV10), updates on ESD,
                                                   ML-optimized integration grids
   S Lehtola, MJT Oliveira, MAL Marques          : LibXC Library
   Liviu Ungur et al                             : ANISO software


 Your calculation uses the libint2 library for the computation of 2-el integrals
 For citations please refer to: http://libint.valeyev.net

 Your ORCA version has been built with support for libXC version: 5.1.0
 For citations please refer to: https://tddft.org/programs/libxc/

 This ORCA versions uses:
   CBLAS   interface :  Fast vector & matrix operations
   LAPACKE interface :  Fast linear algebra routines
   Shared memory     :  Shared parallel matrices


Your calculation utilizes the atom-pairwise dispersion correction
with the zero-damping scheme (D30)
Cite in your paper:
S.Grimme, J.Antony, S.Ehrlich and H.Krieg, J.Chem.Phys., 132, (2010), 154104 
   

XCFun DFT library Copyright 2009-2010 Ulf Ekstrom and contributors.
See http://admol.org/xcfun for more information.
This is free software; see the source code for copying conditions.
There is ABSOLUTELY NO WARRANTY; not even for MERCHANTABILITY or FITNESS FOR A PARTICULAR PURPOSE.
For details see the documentation.
Scientific users of this library should cite U. Ekstrom, L. Visscher, R. Bast, A. J. Thorvaldsen and K. Ruud;
J.Chem.Theor.Comp. 2010, DOI: 10.1021/ct100117s
XCFun Version 0.99 

================================================================================

----- Orbital basis set information -----
Your calculation utilizes the basis: def2-TZVP
   F. Weigend and R. Ahlrichs, Phys. Chem. Chem. Phys. 7, 3297 (2005).

----- AuxJ basis set information -----
Your calculation utilizes the auxiliary basis: def2/J
   F. Weigend, Phys. Chem. Chem. Phys. 8, 1057 (2006).

================================================================================
                                        WARNINGS
                       Please study these warnings very carefully!
================================================================================


WARNING: your system is open-shell and RHF/RKS was chosen
  ===> : WILL SWITCH to UHF/UKS


WARNING: Geometry Optimization
  ===> : Switching off AutoStart
         For restart on a previous wavefunction, please use MOREAD

INFO   : the flag for use of the SHARK integral package has been found!

================================================================================
                                       INPUT FILE
================================================================================
NAME = ph+.inp
|  1> # avogadro generated ORCA input file 
|  2> # PH+ DUPLETO - GEOMETRIA
|  3> # 
|  4> ! WB97X-D3 def2-tzvp OPT FREQ
|  5> %maxcore 3000 
|  6> 
|  7> * xyz 1 2
|  8>    P       -4.07437        0.44335        0.00000
|  9>    H       -2.67483        0.28199        0.00000
| 10> *
| 11> 
| 12> 
| 13>                          ****END OF INPUT****
================================================================================

                       *****************************
                       * Geometry Optimization Run *
                       *****************************

Geometry optimization settings:
Update method            Update   .... BFGS
Choice of coordinates    CoordSys .... Z-matrix Internals
Initial Hessian          InHess   .... Almoef's Model

Convergence Tolerances:
Energy Change            TolE     ....  5.0000e-06 Eh
Max. Gradient            TolMAXG  ....  3.0000e-04 Eh/bohr
RMS Gradient             TolRMSG  ....  1.0000e-04 Eh/bohr
Max. Displacement        TolMAXD  ....  4.0000e-03 bohr
RMS Displacement         TolRMSD  ....  2.0000e-03 bohr
Strict Convergence                ....  False
------------------------------------------------------------------------------
                        ORCA OPTIMIZATION COORDINATE SETUP
------------------------------------------------------------------------------

The optimization will be done in new redundant internal coordinates
Making redundant internal coordinates   ...  (new redundants) done
Evaluating the initial hessian          ...  (Almloef) done
Evaluating the coordinates              ...  done
Calculating the B-matrix                .... done
Calculating the G-matrix                .... done
Diagonalizing the G-matrix              .... done
The first mode is                       ....    0
The number of degrees of freedom        ....    1

    -----------------------------------------------------------------
                    Redundant Internal Coordinates


    -----------------------------------------------------------------
         Definition                    Initial Value    Approx d2E/dq
    -----------------------------------------------------------------
      1. B(H   1,P   0)                  1.4088         0.375210   
    -----------------------------------------------------------------

Number of atoms                         .... 2
Number of degrees of freedom            .... 1

         *************************************************************
         *                GEOMETRY OPTIMIZATION CYCLE   1            *
         *************************************************************
---------------------------------
CARTESIAN COORDINATES (ANGSTROEM)
---------------------------------
  P     -4.074370    0.443350    0.000000
  H     -2.674830    0.281990    0.000000

----------------------------
CARTESIAN COORDINATES (A.U.)
----------------------------
  NO LB      ZA    FRAG     MASS         X           Y           Z
   0 P    15.0000    0    30.974   -7.699443    0.837810    0.000000
   1 H     1.0000    0     1.008   -5.054696    0.532884    0.000000

--------------------------------
INTERNAL COORDINATES (ANGSTROEM)
--------------------------------
 P      0   0   0     0.000000000000     0.00000000     0.00000000
 H      1   0   0     1.408811293680     0.00000000     0.00000000

---------------------------
INTERNAL COORDINATES (A.U.)
---------------------------
 P      0   0   0     0.000000000000     0.00000000     0.00000000
 H      1   0   0     2.662267519430     0.00000000     0.00000000

---------------------
BASIS SET INFORMATION
---------------------
There are 2 groups of distinct atoms

 Group   1 Type P   : 14s9p3d1f contracted to 5s5p2d1f pattern {73211/51111/21/1}
 Group   2 Type H   : 5s1p contracted to 3s1p pattern {311/1}

Atom   0P    basis set group =>   1
Atom   1H    basis set group =>   2
---------------------------------
AUXILIARY/J BASIS SET INFORMATION
---------------------------------
There are 2 groups of distinct atoms

 Group   1 Type P   : 14s5p5d2f1g contracted to 8s4p3d1f1g pattern {71111111/2111/311/2/1}
 Group   2 Type H   : 5s2p1d contracted to 3s1p1d pattern {311/2/1}

Atom   0P    basis set group =>   1
Atom   1H    basis set group =>   2
------------------------------------------------------------------------------
                           ORCA GTO INTEGRAL CALCULATION
                           -- RI-GTO INTEGRALS CHOSEN --
------------------------------------------------------------------------------
------------------------------------------------------------------------------
                   ___                                                        
                  /   \      - P O W E R E D   B Y -                         
                 /     \                                                     
                 |  |  |   _    _      __       _____    __    __             
                 |  |  |  | |  | |    /  \     |  _  \  |  |  /  |          
                  \  \/   | |  | |   /    \    | | | |  |  | /  /          
                 / \  \   | |__| |  /  /\  \   | |_| |  |  |/  /          
                |  |  |   |  __  | /  /__\  \  |    /   |      \           
                |  |  |   | |  | | |   __   |  |    \   |  |\   \          
                \     /   | |  | | |  |  |  |  | |\  \  |  | \   \       
                 \___/    |_|  |_| |__|  |__|  |_| \__\ |__|  \__/        
                                                                              
                      - O R C A' S   B I G   F R I E N D -                    
                                      &                                       
                       - I N T E G R A L  F E E D E R -                       
                                                                              
 v1 FN, 2020, v2 2021                                                         
------------------------------------------------------------------------------


Reading SHARK input file ph+.SHARKINP.tmp ... ok
----------------------
SHARK INTEGRAL PACKAGE
----------------------

Number of atoms                             ...      2
Number of basis functions                   ...     43
Number of shells                            ...     17
Maximum angular momentum                    ...      3
Integral batch strategy                     ... SHARK/LIBINT Hybrid
RI-J (if used) integral strategy            ... SPLIT-RIJ (Revised 2003 algorithm where possible)
Printlevel                                  ...      1
Contraction scheme used                     ... SEGMENTED contraction
Coulomb Range Separation                    ... NOT USED
Exchange Range Separation                   ... Long Range
   Mu parameter                             ...  0.250000
   Scaling (regular/separated)              ...  0.195728  0.804272
Finite Nucleus Model                        ... NOT USED
Auxiliary Coulomb fitting basis             ... AVAILABLE
   # of basis functions in Aux-J            ...     62
   # of shells in Aux-J                     ...     22
   Maximum angular momentum in Aux-J        ...      4
Auxiliary J/K fitting basis                 ... NOT available
Auxiliary Correlation fitting basis         ... NOT available
Auxiliary 'external' fitting basis          ... NOT available
Integral threshold                          ...     2.500000e-11
Primitive cut-off                           ...     2.500000e-12
Primitive pair pre-selection threshold      ...     2.500000e-12

Calculating pre-screening integrals         ... done (  0.1 sec) Dimension = 17
Organizing shell pair data                  ... done (  0.0 sec)
Shell pair information
Total number of shell pairs                 ...       153
Shell pairs after pre-screening             ...       153
Total number of primitive shell pairs       ...       600
Primitive shell pairs kept                  ...       573
          la=0 lb=0:     36 shell pairs
          la=1 lb=0:     48 shell pairs
          la=1 lb=1:     21 shell pairs
          la=2 lb=0:     16 shell pairs
          la=2 lb=1:     12 shell pairs
          la=2 lb=2:      3 shell pairs
          la=3 lb=0:      8 shell pairs
          la=3 lb=1:      6 shell pairs
          la=3 lb=2:      2 shell pairs
          la=3 lb=3:      1 shell pairs

Calculating one electron integrals          ... done (  0.0 sec)
Calculating RI/J V-Matrix + Cholesky decomp.... done (  0.0 sec)
Calculating Nuclear repulsion               ... done (  0.0 sec) ENN=      5.634294784624 Eh

SHARK setup successfully completed in   0.2 seconds

Maximum memory used throughout the entire GTOINT-calculation: 15.2 MB
-------------------------------------------------------------------------------
                                 ORCA SCF
-------------------------------------------------------------------------------

------------
SCF SETTINGS
------------
Hamiltonian:
 Density Functional     Method          .... DFT(GTOs)
 Exchange Functional    Exchange        .... WB97X-D3
 Correlation Functional Correlation     .... WB97X-D3
 Gradients option       PostSCFGGA      .... off
 Hybrid DFT is turned on
   Fraction HF Exchange ScalHFX         ....  0.195728
   Scaling of DF-GGA-X  ScalDFX         ....  0.000000
   Scaling of DF-GGA-C  ScalDFC         ....  1.000000
   Scaling of DF-LDA-C  ScalLDAC        ....  1.000000
   Perturbative correction              ....  0.000000
   Density functional embedding theory  .... OFF
 Long-range corrected/Screened/Range-Separated Hybrid DFT is turned on
   Amount of maximum screened exact exchange              ....  0.804272
   Range separation parameter mu (erf(mu*r12)/r12)        ....  0.250000
 RI-approximation to the Coulomb term is turned on
   Number of AuxJ basis functions       .... 62
   RIJ-COSX (HFX calculated with COS-X)).... on


General Settings:
 Integral files         IntName         .... ph+
 Hartree-Fock type      HFTyp           .... UHF
 Total Charge           Charge          ....    1
 Multiplicity           Mult            ....    2
 Number of Electrons    NEL             ....   15
 Basis Dimension        Dim             ....   43
 Nuclear Repulsion      ENuc            ....      5.6342947846 Eh

Convergence Acceleration:
 DIIS                   CNVDIIS         .... on
   Start iteration      DIISMaxIt       ....    12
   Startup error        DIISStart       ....  0.200000
   # of expansion vecs  DIISMaxEq       ....     5
   Bias factor          DIISBfac        ....   1.050
   Max. coefficient     DIISMaxC        ....  10.000
 Trust-Rad. Augm. Hess. CNVTRAH         .... auto
   Auto Start mean grad. ratio tolernc. ....  1.125000
   Auto Start start iteration           ....    20
   Auto Start num. interpolation iter.  ....    10
   Max. Number of Micro iterations      ....    16
   Max. Number of Macro iterations      .... Maxiter - #DIIS iter
   Number of Davidson start vectors     ....     2
   Converg. threshold I  (grad. norm)   ....   1.000e-05
   Converg. threshold II (energy diff.) ....   1.000e-08
   Grad. Scal. Fac. for Micro threshold ....   0.100
   Minimum threshold for Micro iter.    ....   0.010
   NR start threshold (gradient norm)   ....   0.001
   Initial trust radius                 ....   0.400
   Minimum AH scaling param. (alpha)    ....   1.000
   Maximum AH scaling param. (alpha)    .... 1000.000
   Orbital update algorithm             .... Taylor
   White noise on init. David. guess    .... on
   Maximum white noise                  ....   0.010
   Quad. conv. algorithm                .... NR
 SOSCF                  CNVSOSCF        .... off
 Level Shifting         CNVShift        .... on
   Level shift para.    LevelShift      ....    0.2500
   Turn off err/grad.   ShiftErr        ....    0.0010
 Zerner damping         CNVZerner       .... off
 Static damping         CNVDamp         .... on
   Fraction old density DampFac         ....    0.7000
   Max. Damping (<1)    DampMax         ....    0.9800
   Min. Damping (>=0)   DampMin         ....    0.0000
   Turn off err/grad.   DampErr         ....    0.1000
 Fernandez-Rico         CNVRico         .... off

SCF Procedure:
 Maximum # iterations   MaxIter         ....   125
 SCF integral mode      SCFMode         .... Direct
   Integral package                     .... SHARK and LIBINT hybrid scheme
 Reset frequency        DirectResetFreq ....    20
 Integral Threshold     Thresh          ....  2.500e-11 Eh
 Primitive CutOff       TCut            ....  2.500e-12 Eh

Convergence Tolerance:
 Convergence Check Mode ConvCheckMode   .... Total+1el-Energy
 Convergence forced     ConvForced      .... 0
 Energy Change          TolE            ....  1.000e-08 Eh
 1-El. energy change                    ....  1.000e-05 Eh
 DIIS Error             TolErr          ....  5.000e-07


Diagonalization of the overlap matrix:
Smallest eigenvalue                        ... 2.087e-02
Time for diagonalization                   ...    0.003 sec
Threshold for overlap eigenvalues          ... 1.000e-08
Number of eigenvalues below threshold      ... 0
Time for construction of square roots      ...    0.013 sec
Total time needed                          ...    0.016 sec

Time for model grid setup =    0.030 sec

------------------------------
INITIAL GUESS: MODEL POTENTIAL
------------------------------
Loading Hartree-Fock densities                     ... done
Calculating cut-offs                               ... done
Initializing the effective Hamiltonian             ... done
Setting up the integral package (SHARK)            ... done
Starting the Coulomb interaction                   ... done (   0.0 sec)
Reading the grid                                   ... done
Mapping shells                                     ... done
Starting the XC term evaluation                    ... done (   0.0 sec)
  promolecular density results
     # of electrons  =     15.999663607
     EX              =    -22.735618612
     EC              =     -0.576890563
     EX+EC           =    -23.312509175
Transforming the Hamiltonian                       ... done (   0.0 sec)
Diagonalizing the Hamiltonian                      ... done (   0.0 sec)
Back transforming the eigenvectors                 ... done (   0.0 sec)
Now organizing SCF variables                       ... done
                      ------------------
                      INITIAL GUESS DONE (   0.1 sec)
                      ------------------
-------------------
DFT GRID GENERATION
-------------------

General Integration Accuracy     IntAcc      ... 4.388
Radial Grid Type                 RadialGrid  ... OptM3 with GC (2021)
Angular Grid (max. ang.)         AngularGrid ... 4 (Lebedev-302)
Angular grid pruning method      GridPruning ... 4 (adaptive)
Weight generation scheme         WeightScheme... Becke
Basis function cutoff            BFCut       ... 1.0000e-11
Integration weight cutoff        WCut        ... 1.0000e-14
Angular grids for H and He will be reduced by one unit
Partially contracted basis set               ... off
Rotationally invariant grid construction     ... off

Total number of grid points                  ...    10693
Total number of batches                      ...      168
Average number of points per batch           ...       63
Average number of grid points per atom       ...     5347
Time for grid setup =    0.108 sec

--------------------
COSX GRID GENERATION
--------------------

GRIDX 1
-------
General Integration Accuracy     IntAcc      ... 3.816
Radial Grid Type                 RadialGrid  ... OptM3 with GC (2021)
Angular Grid (max. ang.)         AngularGrid ... 1 (Lebedev-50)
Angular grid pruning method      GridPruning ... 4 (adaptive)
Weight generation scheme         WeightScheme... Becke
Basis function cutoff            BFCut       ... 1.0000e-11
Integration weight cutoff        WCut        ... 1.0000e-14
Angular grids for H and He will be reduced by one unit
Partially contracted basis set               ... on
Rotationally invariant grid construction     ... off

Total number of grid points                  ...     1286
Total number of batches                      ...       21
Average number of points per batch           ...       61
Average number of grid points per atom       ...      643
UseSFitting                                  ... on

GRIDX 2
-------
General Integration Accuracy     IntAcc      ... 4.020
Radial Grid Type                 RadialGrid  ... OptM3 with GC (2021)
Angular Grid (max. ang.)         AngularGrid ... 2 (Lebedev-110)
Angular grid pruning method      GridPruning ... 4 (adaptive)
Weight generation scheme         WeightScheme... Becke
Basis function cutoff            BFCut       ... 1.0000e-11
Integration weight cutoff        WCut        ... 1.0000e-14
Angular grids for H and He will be reduced by one unit
Partially contracted basis set               ... on
Rotationally invariant grid construction     ... off

Total number of grid points                  ...     2792
Total number of batches                      ...       45
Average number of points per batch           ...       62
Average number of grid points per atom       ...     1396
UseSFitting                                  ... on

GRIDX 3
-------
General Integration Accuracy     IntAcc      ... 4.338
Radial Grid Type                 RadialGrid  ... OptM3 with GC (2021)
Angular Grid (max. ang.)         AngularGrid ... 3 (Lebedev-194)
Angular grid pruning method      GridPruning ... 4 (adaptive)
Weight generation scheme         WeightScheme... Becke
Basis function cutoff            BFCut       ... 1.0000e-11
Integration weight cutoff        WCut        ... 1.0000e-14
Angular grids for H and He will be reduced by one unit
Partially contracted basis set               ... on
Rotationally invariant grid construction     ... off

Total number of grid points                  ...     6825
Total number of batches                      ...      108
Average number of points per batch           ...       63
Average number of grid points per atom       ...     3413
UseSFitting                                  ... on

Time for X-Grid setup             =    0.154 sec

--------------
SCF ITERATIONS
--------------
ITER       Energy         Delta-E        Max-DP      RMS-DP      [F,P]     Damp
               ***  Starting incremental Fock matrix formation  ***
  0   -341.4757647768   0.000000000000 0.03792554  0.00137379  0.0871249 0.7000
  1   -341.4840327459  -0.008267969032 0.03208456  0.00121197  0.0607669 0.7000
                               ***Turning on DIIS***
  2   -341.4898840221  -0.005851276225 0.07419965  0.00294437  0.0384708 0.0000
  3   -341.5030755912  -0.013191569082 0.01457280  0.00049240  0.0174605 0.0000
  4   -341.5035566552  -0.000481063999 0.00802751  0.00023016  0.0035759 0.0000
  5   -341.5036522209  -0.000095565766 0.00481151  0.00013404  0.0018166 0.0000
  6   -341.5036783245  -0.000026103562 0.00243387  0.00006560  0.0007440 0.0000
               *** Restarting incremental Fock matrix formation ***
                                   *** Resetting DIIS ***
  7   -341.5036855233  -0.000007198776 0.00014300  0.00000616  0.0000910 0.0000
  8   -341.5036856150  -0.000000091753 0.00006843  0.00000289  0.0000323 0.0000
  9   -341.5036856316  -0.000000016573 0.00001875  0.00000075  0.0000056 0.0000
 10   -341.5036856331  -0.000000001485 0.00000600  0.00000027  0.0000018 0.0000
                 **** Energy Check signals convergence ****

               *****************************************************
               *                     SUCCESS                       *
               *           SCF CONVERGED AFTER  11 CYCLES          *
               *****************************************************

Old exchange energy                            =     -6.077146158 Eh
New exchange energy                            =     -6.077143109 Eh
Exchange energy change after final integration =      0.000003049 Eh
Total energy after final integration           =   -341.503682583 Eh
Final COS-X integration done in                =     0.544 sec

----------------
TOTAL SCF ENERGY
----------------

Total Energy       :         -341.50368258 Eh           -9292.78764 eV

Components:
Nuclear Repulsion  :            5.63429478 Eh             153.31696 eV
Electronic Energy  :         -347.13797737 Eh           -9446.10459 eV
One Electron Energy:         -477.68495925 Eh          -12998.46857 eV
Two Electron Energy:          130.54698188 Eh            3552.36398 eV
Max COSX asymmetry :            0.00000029 Eh               0.00001 eV

Virial components:
Potential Energy   :         -682.38427125 Eh          -18568.62003 eV
Kinetic Energy     :          340.88058866 Eh            9275.83239 eV
Virial Ratio       :            2.00182789


DFT components:
N(Alpha)           :        7.999999767730 electrons
N(Beta)            :        7.000000070913 electrons
N(Total)           :       14.999999838643 electrons
E(XC)              :      -17.189474101095 Eh       
DFET-embed. en.    :        0.000000000000 Eh       

---------------
SCF CONVERGENCE
---------------

  Last Energy change         ...    3.6061e-10  Tolerance :   1.0000e-08
  Last MAX-Density change    ...    0.0000e+00  Tolerance :   1.0000e-07
  Last RMS-Density change    ...    0.0000e+00  Tolerance :   5.0000e-09
  Last DIIS Error            ...    9.8842e-07  Tolerance :   5.0000e-07

             **** THE GBW FILE WAS UPDATED (ph+.gbw) ****
             **** DENSITY ph+.scfp WAS UPDATED ****
             **** ENERGY FILE WAS UPDATED (ph+.en.tmp) ****
----------------------
UHF SPIN CONTAMINATION
----------------------

Warning: in a DFT calculation there is little theoretical justification to 
         calculate <S**2> as in Hartree-Fock theory. We will do it anyways
         but you should keep in mind that the values have only limited relevance

Expectation value of <S**2>     :     0.754397
Ideal value S*(S+1) for S=0.5   :     0.750000
Deviation                       :     0.004397

             **** THE GBW FILE WAS UPDATED (ph+.gbw) ****
             **** DENSITY ph+.scfp WAS UPDATED ****
----------------
ORBITAL ENERGIES
----------------
                 SPIN UP ORBITALS
  NO   OCC          E(Eh)            E(eV) 
   0   1.0000     -77.576295     -2110.9583 
   1   1.0000      -7.071772      -192.4327 
   2   1.0000      -5.226450      -142.2189 
   3   1.0000      -5.226161      -142.2111 
   4   1.0000      -5.217890      -141.9860 
   5   1.0000      -1.053079       -28.6557 
   6   1.0000      -0.754215       -20.5232 
   7   1.0000      -0.662721       -18.0336 
   8   0.0000      -0.396739       -10.7958 
   9   0.0000      -0.151120        -4.1122 
  10   0.0000       0.007969         0.2168 
  11   0.0000       0.037102         1.0096 
  12   0.0000       0.045533         1.2390 
  13   0.0000       0.049410         1.3445 
  14   0.0000       0.055390         1.5072 
  15   0.0000       0.077197         2.1006 
  16   0.0000       0.077518         2.1094 
  17   0.0000       0.087719         2.3869 
  18   0.0000       0.268819         7.3149 
  19   0.0000       0.365818         9.9544 
  20   0.0000       0.960047        26.1242 
  21   0.0000       0.962514        26.1913 
  22   0.0000       0.966188        26.2913 
  23   0.0000       0.968680        26.3591 
  24   0.0000       0.972762        26.4702 
  25   0.0000       0.975230        26.5374 
  26   0.0000       0.978140        26.6166 
  27   0.0000       1.083121        29.4732 
  28   0.0000       1.083335        29.4790 
  29   0.0000       1.086558        29.5667 
  30   0.0000       1.090364        29.6703 
  31   0.0000       1.224193        33.3120 
  32   0.0000       1.228725        33.4353 
  33   0.0000       1.230470        33.4828 
  34   0.0000       1.369024        37.2530 
  35   0.0000       1.788682        48.6725 
  36   0.0000       1.792051        48.7642 
  37   0.0000       2.218032        60.3557 
  38   0.0000       2.449255        66.6476 
  39   0.0000       6.907853       187.9722 
  40   0.0000       6.914286       188.1473 
  41   0.0000       6.999927       190.4777 
  42   0.0000      13.003384       353.8401 

                 SPIN DOWN ORBITALS
  NO   OCC          E(Eh)            E(eV) 
   0   1.0000     -77.571021     -2110.8148 
   1   1.0000      -7.067565      -192.3182 
   2   1.0000      -5.223537      -142.1397 
   3   1.0000      -5.214865      -141.9037 
   4   1.0000      -5.210235      -141.7777 
   5   1.0000      -1.010138       -27.4872 
   6   1.0000      -0.738813       -20.1041 
   7   0.0000      -0.383244       -10.4286 
   8   0.0000      -0.347746        -9.4627 
   9   0.0000      -0.139551        -3.7974 
  10   0.0000       0.011071         0.3013 
  11   0.0000       0.050096         1.3632 
  12   0.0000       0.074231         2.0199 
  13   0.0000       0.083939         2.2841 
  14   0.0000       0.085697         2.3319 
  15   0.0000       0.086946         2.3659 
  16   0.0000       0.091569         2.4917 
  17   0.0000       0.105225         2.8633 
  18   0.0000       0.276313         7.5189 
  19   0.0000       0.373937        10.1753 
  20   0.0000       0.966499        26.2998 
  21   0.0000       0.972720        26.4691 
  22   0.0000       0.979447        26.6521 
  23   0.0000       0.983835        26.7715 
  24   0.0000       0.990019        26.9398 
  25   0.0000       0.993219        27.0269 
  26   0.0000       1.001525        27.2529 
  27   0.0000       1.117122        30.3984 
  28   0.0000       1.117253        30.4020 
  29   0.0000       1.121085        30.5063 
  30   0.0000       1.121247        30.5107 
  31   0.0000       1.228896        33.4400 
  32   0.0000       1.239038        33.7159 
  33   0.0000       1.255239        34.1568 
  34   0.0000       1.379230        37.5308 
  35   0.0000       1.790120        48.7117 
  36   0.0000       1.805429        49.1282 
  37   0.0000       2.220618        60.4261 
  38   0.0000       2.449809        66.6627 
  39   0.0000       6.915773       188.1877 
  40   0.0000       6.942387       188.9120 
  41   0.0000       7.005568       190.6312 
  42   0.0000      13.013661       354.1197 

                    ********************************
                    * MULLIKEN POPULATION ANALYSIS *
                    ********************************

--------------------------------------------
MULLIKEN ATOMIC CHARGES AND SPIN POPULATIONS
--------------------------------------------
   0 P :    0.785180    1.016347
   1 H :    0.214820   -0.016347
Sum of atomic charges         :    1.0000000
Sum of atomic spin populations:    1.0000000

-----------------------------------------------------
MULLIKEN REDUCED ORBITAL CHARGES AND SPIN POPULATIONS
-----------------------------------------------------
CHARGE
  0 P s       :     5.938885  s :     5.938885
      pz      :     2.995702  p :     8.207390
      px      :     3.195811
      py      :     2.015877
      dz2     :     0.016398  d :     0.065347
      dxz     :     0.001453
      dyz     :     0.000019
      dx2y2   :     0.045019
      dxy     :     0.002458
      f0      :    -0.000003  f :     0.003199
      f+1     :     0.001838
      f-1     :     0.000025
      f+2     :    -0.000005
      f-2     :    -0.000000
      f+3     :     0.001191
      f-3     :     0.000152
  1 H s       :     0.769329  s :     0.769329
      pz      :     0.002833  p :     0.015850
      px      :     0.012840
      py      :     0.000177

SPIN
  0 P s       :     0.009837  s :     0.009837
      pz      :     0.995708  p :     1.004381
      px      :     0.008564
      py      :     0.000109
      dz2     :     0.001516  d :     0.003304
      dxz     :     0.001452
      dyz     :     0.000019
      dx2y2   :     0.000301
      dxy     :     0.000016
      f0      :    -0.000003  f :    -0.001176
      f+1     :    -0.001122
      f-1     :    -0.000015
      f+2     :    -0.000005
      f-2     :    -0.000000
      f+3     :    -0.000027
      f-3     :    -0.000004
  1 H s       :    -0.019245  s :    -0.019245
      pz      :     0.002829  p :     0.002898
      px      :     0.000068
      py      :     0.000001


                     *******************************
                     * LOEWDIN POPULATION ANALYSIS *
                     *******************************

-------------------------------------------
LOEWDIN ATOMIC CHARGES AND SPIN POPULATIONS
-------------------------------------------
   0 P :    0.960153    1.004069
   1 H :    0.039847   -0.004069

----------------------------------------------------
LOEWDIN REDUCED ORBITAL CHARGES AND SPIN POPULATIONS
----------------------------------------------------
CHARGE
  0 P s       :     5.734957  s :     5.734957
      pz      :     2.990427  p :     8.221887
      px      :     3.215318
      py      :     2.016142
      dz2     :     0.018993  d :     0.075993
      dxz     :     0.001069
      dyz     :     0.000014
      dx2y2   :     0.053022
      dxy     :     0.002895
      f0      :     0.000014  f :     0.007010
      f+1     :     0.003143
      f-1     :     0.000042
      f+2     :     0.000030
      f-2     :     0.000002
      f+3     :     0.003350
      f-3     :     0.000430
  1 H s       :     0.904249  s :     0.904249
      pz      :     0.008444  p :     0.055905
      px      :     0.046837
      py      :     0.000623

SPIN
  0 P s       :     0.009530  s :     0.009530
      pz      :     0.990429  p :     0.992352
      px      :     0.001902
      py      :     0.000021
      dz2     :     0.002809  d :     0.003311
      dxz     :     0.001068
      dyz     :     0.000014
      dx2y2   :    -0.000550
      dxy     :    -0.000030
      f0      :     0.000014  f :    -0.001124
      f+1     :    -0.000990
      f-1     :    -0.000013
      f+2     :     0.000030
      f-2     :     0.000002
      f+3     :    -0.000147
      f-3     :    -0.000019
  1 H s       :    -0.013505  s :    -0.013505
      pz      :     0.008444  p :     0.009436
      px      :     0.000979
      py      :     0.000013


                      *****************************
                      * MAYER POPULATION ANALYSIS *
                      *****************************

  NA   - Mulliken gross atomic population
  ZA   - Total nuclear charge
  QA   - Mulliken gross atomic charge
  VA   - Mayer's total valence
  BVA  - Mayer's bonded valence
  FA   - Mayer's free valence

  ATOM       NA         ZA         QA         VA         BVA        FA
  0 P     14.2148    15.0000     0.7852     1.9253     0.9224     1.0029
  1 H      0.7852     1.0000     0.2148     0.9227     0.9224     0.0004

  Mayer bond orders larger than 0.100000
B(  0-P ,  1-H ) :   0.9224 

-------
TIMINGS
-------

Total SCF time: 0 days 0 hours 0 min 7 sec 

Total time                  ....       7.227 sec
Sum of individual times     ....       6.881 sec  ( 95.2%)

Fock matrix formation       ....       6.483 sec  ( 89.7%)
  Split-RI-J                ....       0.295 sec  (  4.6% of F)
  Chain of spheres X        ....       3.108 sec  ( 47.9% of F)
  XC integration            ....       2.657 sec  ( 41.0% of F)
    Basis function eval.    ....       0.308 sec  ( 11.6% of XC)
    Density eval.           ....       0.809 sec  ( 30.4% of XC)
    XC-Functional eval.     ....       0.960 sec  ( 36.1% of XC)
    XC-Potential eval.      ....       0.296 sec  ( 11.1% of XC)
Diagonalization             ....       0.014 sec  (  0.2%)
Density matrix formation    ....       0.001 sec  (  0.0%)
Population analysis         ....       0.027 sec  (  0.4%)
Initial guess               ....       0.035 sec  (  0.5%)
Orbital Transformation      ....       0.000 sec  (  0.0%)
Orbital Orthonormalization  ....       0.000 sec  (  0.0%)
DIIS solution               ....       0.029 sec  (  0.4%)
Grid generation             ....       0.292 sec  (  4.0%)

Maximum memory used throughout the entire SCF-calculation: 60.6 MB


-------------------------------------------------------------------------------
                          DFT DISPERSION CORRECTION                            
                                                                               
                              DFTD3 V3.1  Rev 1                                
                              USING zero damping                               
-------------------------------------------------------------------------------
The omegaB97X-D3 functional is recognized. Fit by Chai et al.
Active option DFTDOPT                   ...         3   

molecular C6(AA) [au] = 230.561750 


            DFT-D V3
 parameters
 s6 scaling factor         :     1.0000 
 rs6 scaling factor        :     1.2810 
 s8 scaling factor         :     1.0000 
 rs8 scaling factor        :     1.0940 
 Damping factor alpha6     :    14.0000 
 Damping factor alpha8     :    16.0000 
 ad hoc parameters k1-k3   :    16.0000     1.3333    -4.0000 

 Edisp/kcal,au: -0.000096747733  -0.000000154177 
 E6   /kcal   :  -0.000012271 
 E8   /kcal   :  -0.000084477 
 % E8         :  87.316434079 

-------------------------   ----------------
Dispersion correction           -0.000000154
-------------------------   ----------------


-------------------------   --------------------
FINAL SINGLE POINT ENERGY      -341.503682737543
-------------------------   --------------------

------------------------------------------------------------------------------
                         ORCA SCF GRADIENT CALCULATION
------------------------------------------------------------------------------

 ... reading COSX grid (gridx3)
Gradient of the Kohn-Sham DFT energy:
Kohn-Sham wavefunction type      ... UKS
Hartree-Fock exchange scaling    ...    0.196
Number of operators              ...    2
Number of atoms                  ...    2
Basis set dimensions             ...   43
Integral neglect threshold       ... 2.5e-11
Integral primitive cutoff        ... 2.5e-12
SHARK Integral package           ... ON

Nuc. rep. gradient       (SHARK) ... done (  0.0 sec)
HCore & Overlap gradient (SHARK) ... done (  0.0 sec)
RI-J gradient            (SHARK) ... done (  0.1 sec)
COSX-gradient                    ... done (  0.8 sec)
Exchange-correlation gradient    ... done
Dispersion correction            ... done

------------------
CARTESIAN GRADIENT
------------------

   1   P   :    0.008023797   -0.000862404    0.000000010
   2   H   :   -0.008019768    0.000896305    0.000000010

Difference to translation invariance:
           :    0.0000040294    0.0000339004    0.0000000200

Difference to rotation invariance:
           :    0.0000000138    0.0000001283   -0.0003393278

Norm of the cartesian gradient     ...    0.0114124978
RMS gradient                       ...    0.0046591327
MAX gradient                       ...    0.0080237974

-------
TIMINGS
-------

Total SCF gradient time            ...        1.714 sec

One electron gradient       ....       0.006 sec  (  0.4%)
RI-J Coulomb gradient       ....       0.137 sec  (  8.0%)
COSX gradient               ....       0.762 sec  ( 44.5%)
XC gradient                 ....       0.384 sec  ( 22.4%)

Maximum memory used throughout the entire SCFGRAD-calculation: 35.6 MB
------------------------------------------------------------------------------
                         ORCA GEOMETRY RELAXATION STEP
------------------------------------------------------------------------------

Reading the OPT-File                    .... done
Getting information on internals        .... done
Copying old internal coords+grads       .... done
Making the new internal coordinates     .... (new redundants).... done
Validating the new internal coordinates .... (new redundants).... done
Calculating the B-matrix                .... done
Calculating the G,G- and P matrices     .... done
Transforming gradient to internals      .... done
Projecting the internal gradient        .... done
Number of atoms                         ....   2
Number of internal coordinates          ....   1
Current Energy                          ....  -341.503682738 Eh
Current gradient norm                   ....     0.011412498 Eh/bohr
Maximum allowed component of the step   ....  0.300
Current trust radius                    ....  0.300
Evaluating the initial hessian          ....  (Almloef) done
Projecting the Hessian                  .... done
Forming the augmented Hessian           .... done
Diagonalizing the augmented Hessian     .... done
Last element of RFO vector              ....  0.999769014
Lowest eigenvalues of augmented Hessian:
 -0.000173477
Length of the computed step             ....  0.021497264
The final length of the internal step   ....  0.021497264
Converting the step to cartesian space:
 Initial RMS(Int)=    0.0214972637
Transforming coordinates:
 Iter   0:  RMS(Cart)=    0.0062057255 RMS(Int)=    0.0214972637
 Iter   1:  RMS(Cart)=    0.0000000000 RMS(Int)=    0.0000000000
done
Storing new coordinates                 .... done

                                .--------------------.
          ----------------------|Geometry convergence|-------------------------
          Item                value                   Tolerance       Converged
          ---------------------------------------------------------------------
          RMS gradient        0.0080697098            0.0001000000      NO
          MAX gradient        0.0080697098            0.0003000000      NO
          RMS step            0.0214972637            0.0020000000      NO
          MAX step            0.0214972637            0.0040000000      NO
          ........................................................
          Max(Bonds)      0.0114      Max(Angles)    0.00
          Max(Dihed)        0.00      Max(Improp)    0.00
          ---------------------------------------------------------------------

The optimization has not yet converged - more geometry cycles are needed


    ---------------------------------------------------------------------------
                         Redundant Internal Coordinates
                            (Angstroem and degrees)

        Definition                    Value    dE/dq     Step     New-Value
    ----------------------------------------------------------------------------
     1. B(H   1,P   0)                1.4088 -0.008070  0.0114    1.4202   
    ----------------------------------------------------------------------------

         *************************************************************
         *                GEOMETRY OPTIMIZATION CYCLE   2            *
         *************************************************************
---------------------------------
CARTESIAN COORDINATES (ANGSTROEM)
---------------------------------
  P     -4.080020    0.444001    0.000000
  H     -2.669180    0.281339    0.000000

----------------------------
CARTESIAN COORDINATES (A.U.)
----------------------------
  NO LB      ZA    FRAG     MASS         X           Y           Z
   0 P    15.0000    0    30.974   -7.710121    0.839041    0.000000
   1 H     1.0000    0     1.008   -5.044018    0.531653    0.000000

--------------------------------
INTERNAL COORDINATES (ANGSTROEM)
--------------------------------
 P      0   0   0     0.000000000000     0.00000000     0.00000000
 H      1   0   0     1.420187155657     0.00000000     0.00000000

---------------------------
INTERNAL COORDINATES (A.U.)
---------------------------
 P      0   0   0     0.000000000000     0.00000000     0.00000000
 H      1   0   0     2.683764783104     0.00000000     0.00000000

------------------------------------------------------------------------------
                   ___                                                        
                  /   \      - P O W E R E D   B Y -                         
                 /     \                                                     
                 |  |  |   _    _      __       _____    __    __             
                 |  |  |  | |  | |    /  \     |  _  \  |  |  /  |          
                  \  \/   | |  | |   /    \    | | | |  |  | /  /          
                 / \  \   | |__| |  /  /\  \   | |_| |  |  |/  /          
                |  |  |   |  __  | /  /__\  \  |    /   |      \           
                |  |  |   | |  | | |   __   |  |    \   |  |\   \          
                \     /   | |  | | |  |  |  |  | |\  \  |  | \   \       
                 \___/    |_|  |_| |__|  |__|  |_| \__\ |__|  \__/        
                                                                              
                      - O R C A' S   B I G   F R I E N D -                    
                                      &                                       
                       - I N T E G R A L  F E E D E R -                       
                                                                              
 v1 FN, 2020, v2 2021                                                         
------------------------------------------------------------------------------


Reading SHARK input file ph+.SHARKINP.tmp ... ok
----------------------
SHARK INTEGRAL PACKAGE
----------------------

Number of atoms                             ...      2
Number of basis functions                   ...     43
Number of shells                            ...     17
Maximum angular momentum                    ...      3
Integral batch strategy                     ... SHARK/LIBINT Hybrid
RI-J (if used) integral strategy            ... SPLIT-RIJ (Revised 2003 algorithm where possible)
Printlevel                                  ...      1
Contraction scheme used                     ... SEGMENTED contraction
Coulomb Range Separation                    ... NOT USED
Exchange Range Separation                   ... Long Range
   Mu parameter                             ...  0.250000
   Scaling (regular/separated)              ...  0.195728  0.804272
Finite Nucleus Model                        ... NOT USED
Auxiliary Coulomb fitting basis             ... AVAILABLE
   # of basis functions in Aux-J            ...     62
   # of shells in Aux-J                     ...     22
   Maximum angular momentum in Aux-J        ...      4
Auxiliary J/K fitting basis                 ... NOT available
Auxiliary Correlation fitting basis         ... NOT available
Auxiliary 'external' fitting basis          ... NOT available
Integral threshold                          ...     2.500000e-11
Primitive cut-off                           ...     2.500000e-12
Primitive pair pre-selection threshold      ...     2.500000e-12

Calculating pre-screening integrals         ... done (  0.0 sec) Dimension = 17
Organizing shell pair data                  ... done (  0.0 sec)
Shell pair information
Total number of shell pairs                 ...       153
Shell pairs after pre-screening             ...       153
Total number of primitive shell pairs       ...       600
Primitive shell pairs kept                  ...       573
          la=0 lb=0:     36 shell pairs
          la=1 lb=0:     48 shell pairs
          la=1 lb=1:     21 shell pairs
          la=2 lb=0:     16 shell pairs
          la=2 lb=1:     12 shell pairs
          la=2 lb=2:      3 shell pairs
          la=3 lb=0:      8 shell pairs
          la=3 lb=1:      6 shell pairs
          la=3 lb=2:      2 shell pairs
          la=3 lb=3:      1 shell pairs

Calculating one electron integrals          ... done (  0.0 sec)
Calculating RI/J V-Matrix + Cholesky decomp.... done (  0.0 sec)
Calculating Nuclear repulsion               ... done (  0.0 sec) ENN=      5.589163437286 Eh

SHARK setup successfully completed in   0.2 seconds

Maximum memory used throughout the entire GTOINT-calculation: 15.2 MB

Diagonalization of the overlap matrix:
Smallest eigenvalue                        ... 2.152e-02
Time for diagonalization                   ...    0.002 sec
Threshold for overlap eigenvalues          ... 1.000e-08
Number of eigenvalues below threshold      ... 0
Time for construction of square roots      ...    0.007 sec
Total time needed                          ...    0.009 sec

-------------------
DFT GRID GENERATION
-------------------

General Integration Accuracy     IntAcc      ... 4.388
Radial Grid Type                 RadialGrid  ... OptM3 with GC (2021)
Angular Grid (max. ang.)         AngularGrid ... 4 (Lebedev-302)
Angular grid pruning method      GridPruning ... 4 (adaptive)
Weight generation scheme         WeightScheme... Becke
Basis function cutoff            BFCut       ... 1.0000e-11
Integration weight cutoff        WCut        ... 1.0000e-14
Angular grids for H and He will be reduced by one unit
Partially contracted basis set               ... off
Rotationally invariant grid construction     ... off

Total number of grid points                  ...    10693
Total number of batches                      ...      168
Average number of points per batch           ...       63
Average number of grid points per atom       ...     5347
Time for grid setup =    0.450 sec

--------------------
COSX GRID GENERATION
--------------------

GRIDX 1
-------
General Integration Accuracy     IntAcc      ... 3.816
Radial Grid Type                 RadialGrid  ... OptM3 with GC (2021)
Angular Grid (max. ang.)         AngularGrid ... 1 (Lebedev-50)
Angular grid pruning method      GridPruning ... 4 (adaptive)
Weight generation scheme         WeightScheme... Becke
Basis function cutoff            BFCut       ... 1.0000e-11
Integration weight cutoff        WCut        ... 1.0000e-14
Angular grids for H and He will be reduced by one unit
Partially contracted basis set               ... on
Rotationally invariant grid construction     ... off

Total number of grid points                  ...     1286
Total number of batches                      ...       21
Average number of points per batch           ...       61
Average number of grid points per atom       ...      643
UseSFitting                                  ... on

GRIDX 2
-------
General Integration Accuracy     IntAcc      ... 4.020
Radial Grid Type                 RadialGrid  ... OptM3 with GC (2021)
Angular Grid (max. ang.)         AngularGrid ... 2 (Lebedev-110)
Angular grid pruning method      GridPruning ... 4 (adaptive)
Weight generation scheme         WeightScheme... Becke
Basis function cutoff            BFCut       ... 1.0000e-11
Integration weight cutoff        WCut        ... 1.0000e-14
Angular grids for H and He will be reduced by one unit
Partially contracted basis set               ... on
Rotationally invariant grid construction     ... off

Total number of grid points                  ...     2792
Total number of batches                      ...       45
Average number of points per batch           ...       62
Average number of grid points per atom       ...     1396
UseSFitting                                  ... on

GRIDX 3
-------
General Integration Accuracy     IntAcc      ... 4.338
Radial Grid Type                 RadialGrid  ... OptM3 with GC (2021)
Angular Grid (max. ang.)         AngularGrid ... 3 (Lebedev-194)
Angular grid pruning method      GridPruning ... 4 (adaptive)
Weight generation scheme         WeightScheme... Becke
Basis function cutoff            BFCut       ... 1.0000e-11
Integration weight cutoff        WCut        ... 1.0000e-14
Angular grids for H and He will be reduced by one unit
Partially contracted basis set               ... on
Rotationally invariant grid construction     ... off

Total number of grid points                  ...     6825
Total number of batches                      ...      108
Average number of points per batch           ...       63
Average number of grid points per atom       ...     3413
UseSFitting                                  ... on

Time for X-Grid setup             =    0.132 sec

--------------
SCF ITERATIONS
--------------
ITER       Energy         Delta-E        Max-DP      RMS-DP      [F,P]     Damp
               ***  Starting incremental Fock matrix formation  ***
  0   -341.5037907487   0.000000000000 0.00022318  0.00001399  0.0038109 0.7000
  1   -341.5037945909  -0.000003842257 0.00020924  0.00001257  0.0029122 0.7000
                               ***Turning on DIIS***
  2   -341.5037975199  -0.000002929005 0.00056736  0.00003325  0.0021466 0.0000
  3   -341.5038049811  -0.000007461144 0.00032086  0.00001292  0.0002720 0.0000
               *** Restarting incremental Fock matrix formation ***
                                   *** Resetting DIIS ***
  4   -341.5038051370  -0.000000155914 0.00010303  0.00000356  0.0000736 0.0000
  5   -341.5038051531  -0.000000016078 0.00002459  0.00000101  0.0000167 0.0000
  6   -341.5038051543  -0.000000001245 0.00001127  0.00000042  0.0000055 0.0000
                 **** Energy Check signals convergence ****

               *****************************************************
               *                     SUCCESS                       *
               *           SCF CONVERGED AFTER   7 CYCLES          *
               *****************************************************

Old exchange energy                            =     -6.076283148 Eh
New exchange energy                            =     -6.076280286 Eh
Exchange energy change after final integration =      0.000002862 Eh
Total energy after final integration           =   -341.503802293 Eh
Final COS-X integration done in                =     0.539 sec
Total Energy       :         -341.50380229 Eh           -9292.79090 eV
  Last Energy change         ...   -4.7896e-10  Tolerance :   1.0000e-08
  Last MAX-Density change    ...    0.0000e+00  Tolerance :   1.0000e-07
             **** THE GBW FILE WAS UPDATED (ph+.gbw) ****
             **** DENSITY ph+.scfp WAS UPDATED ****
             **** ENERGY FILE WAS UPDATED (ph+.en.tmp) ****
----------------------
UHF SPIN CONTAMINATION
----------------------

Warning: in a DFT calculation there is little theoretical justification to 
         calculate <S**2> as in Hartree-Fock theory. We will do it anyways
         but you should keep in mind that the values have only limited relevance

Expectation value of <S**2>     :     0.754403
Ideal value S*(S+1) for S=0.5   :     0.750000
Deviation                       :     0.004403

             **** THE GBW FILE WAS UPDATED (ph+.gbw) ****
             **** DENSITY ph+.scfp WAS UPDATED ****
Total SCF time: 0 days 0 hours 0 min 5 sec 

Maximum memory used throughout the entire SCF-calculation: 60.6 MB


-------------------------------------------------------------------------------
                          DFT DISPERSION CORRECTION                            
                                                                               
                              DFTD3 V3.1  Rev 1                                
                              USING zero damping                               
-------------------------------------------------------------------------------
-------------------------   ----------------
Dispersion correction           -0.000000164
-------------------------   ----------------


-------------------------   --------------------
FINAL SINGLE POINT ENERGY      -341.503802457105
-------------------------   --------------------

------------------------------------------------------------------------------
                         ORCA SCF GRADIENT CALCULATION
------------------------------------------------------------------------------

 ... reading COSX grid (gridx3)
Gradient of the Kohn-Sham DFT energy:
Kohn-Sham wavefunction type      ... UKS
Hartree-Fock exchange scaling    ...    0.196
Number of operators              ...    2
Number of atoms                  ...    2
Basis set dimensions             ...   43
Integral neglect threshold       ... 2.5e-11
Integral primitive cutoff        ... 2.5e-12
SHARK Integral package           ... ON

Nuc. rep. gradient       (SHARK) ... done (  0.0 sec)
HCore & Overlap gradient (SHARK) ... done (  0.0 sec)
RI-J gradient            (SHARK) ... done (  0.1 sec)
COSX-gradient                    ... done (  1.0 sec)
Exchange-correlation gradient    ... done
Dispersion correction            ... done

------------------
CARTESIAN GRADIENT
------------------

   1   P   :    0.003093402   -0.000291039    0.000000011
   2   H   :   -0.003090760    0.000326022    0.000000008

Difference to translation invariance:
           :    0.0000026421    0.0000349828    0.0000000186

Difference to rotation invariance:
           :    0.0000000132    0.0000001227   -0.0003527951

Norm of the cartesian gradient     ...    0.0043946470
RMS gradient                       ...    0.0017941071
MAX gradient                       ...    0.0030934017

-------
TIMINGS
-------

Total SCF gradient time            ...        1.926 sec

One electron gradient       ....       0.006 sec  (  0.3%)
RI-J Coulomb gradient       ....       0.122 sec  (  6.3%)
COSX gradient               ....       1.008 sec  ( 52.3%)
XC gradient                 ....       0.400 sec  ( 20.8%)

Maximum memory used throughout the entire SCFGRAD-calculation: 35.6 MB
------------------------------------------------------------------------------
                         ORCA GEOMETRY RELAXATION STEP
------------------------------------------------------------------------------

Reading the OPT-File                    .... done
Getting information on internals        .... done
Copying old internal coords+grads       .... done
Making the new internal coordinates     .... (new redundants).... done
Validating the new internal coordinates .... (new redundants).... done
Calculating the B-matrix                .... done
Calculating the G,G- and P matrices     .... done
Transforming gradient to internals      .... done
Projecting the internal gradient        .... done
Number of atoms                         ....   2
Number of internal coordinates          ....   1
Current Energy                          ....  -341.503802457 Eh
Current gradient norm                   ....     0.004394647 Eh/bohr
Maximum allowed component of the step   ....  0.300
Current trust radius                    ....  0.300
Updating the Hessian (BFGS)             .... done
Forming the augmented Hessian           .... done
Diagonalizing the augmented Hessian     .... done
Last element of RFO vector              ....  0.999909469
Lowest eigenvalues of augmented Hessian:
 -0.000041811
Length of the computed step             ....  0.013456830
The final length of the internal step   ....  0.013456830
Converting the step to cartesian space:
 Initial RMS(Int)=    0.0134568296
Transforming coordinates:
 Iter   0:  RMS(Cart)=    0.0038846521 RMS(Int)=    0.0134568296
 Iter   1:  RMS(Cart)=    0.0000000000 RMS(Int)=    0.0000000000
done
Storing new coordinates                 .... done

                                .--------------------.
          ----------------------|Geometry convergence|-------------------------
          Item                value                   Tolerance       Converged
          ---------------------------------------------------------------------
          Energy change      -0.0001197196            0.0000050000      NO
          RMS gradient        0.0031070697            0.0001000000      NO
          MAX gradient        0.0031070697            0.0003000000      NO
          RMS step            0.0134568296            0.0020000000      NO
          MAX step            0.0134568296            0.0040000000      NO
          ........................................................
          Max(Bonds)      0.0071      Max(Angles)    0.00
          Max(Dihed)        0.00      Max(Improp)    0.00
          ---------------------------------------------------------------------

The optimization has not yet converged - more geometry cycles are needed


    ---------------------------------------------------------------------------
                         Redundant Internal Coordinates
                            (Angstroem and degrees)

        Definition                    Value    dE/dq     Step     New-Value
    ----------------------------------------------------------------------------
     1. B(H   1,P   0)                1.4202 -0.003107  0.0071    1.4273   
    ----------------------------------------------------------------------------

         *************************************************************
         *                GEOMETRY OPTIMIZATION CYCLE   3            *
         *************************************************************
---------------------------------
CARTESIAN COORDINATES (ANGSTROEM)
---------------------------------
  P     -4.083558    0.444409    0.000000
  H     -2.665642    0.280931    0.000000

----------------------------
CARTESIAN COORDINATES (A.U.)
----------------------------
  NO LB      ZA    FRAG     MASS         X           Y           Z
   0 P    15.0000    0    30.974   -7.716805    0.839812    0.000000
   1 H     1.0000    0     1.008   -5.037334    0.530882    0.000000

--------------------------------
INTERNAL COORDINATES (ANGSTROEM)
--------------------------------
 P      0   0   0     0.000000000000     0.00000000     0.00000000
 H      1   0   0     1.427308203175     0.00000000     0.00000000

---------------------------
INTERNAL COORDINATES (A.U.)
---------------------------
 P      0   0   0     0.000000000000     0.00000000     0.00000000
 H      1   0   0     2.697221612700     0.00000000     0.00000000

------------------------------------------------------------------------------
                   ___                                                        
                  /   \      - P O W E R E D   B Y -                         
                 /     \                                                     
                 |  |  |   _    _      __       _____    __    __             
                 |  |  |  | |  | |    /  \     |  _  \  |  |  /  |          
                  \  \/   | |  | |   /    \    | | | |  |  | /  /          
                 / \  \   | |__| |  /  /\  \   | |_| |  |  |/  /          
                |  |  |   |  __  | /  /__\  \  |    /   |      \           
                |  |  |   | |  | | |   __   |  |    \   |  |\   \          
                \     /   | |  | | |  |  |  |  | |\  \  |  | \   \       
                 \___/    |_|  |_| |__|  |__|  |_| \__\ |__|  \__/        
                                                                              
                      - O R C A' S   B I G   F R I E N D -                    
                                      &                                       
                       - I N T E G R A L  F E E D E R -                       
                                                                              
 v1 FN, 2020, v2 2021                                                         
------------------------------------------------------------------------------


Reading SHARK input file ph+.SHARKINP.tmp ... ok
----------------------
SHARK INTEGRAL PACKAGE
----------------------

Number of atoms                             ...      2
Number of basis functions                   ...     43
Number of shells                            ...     17
Maximum angular momentum                    ...      3
Integral batch strategy                     ... SHARK/LIBINT Hybrid
RI-J (if used) integral strategy            ... SPLIT-RIJ (Revised 2003 algorithm where possible)
Printlevel                                  ...      1
Contraction scheme used                     ... SEGMENTED contraction
Coulomb Range Separation                    ... NOT USED
Exchange Range Separation                   ... Long Range
   Mu parameter                             ...  0.250000
   Scaling (regular/separated)              ...  0.195728  0.804272
Finite Nucleus Model                        ... NOT USED
Auxiliary Coulomb fitting basis             ... AVAILABLE
   # of basis functions in Aux-J            ...     62
   # of shells in Aux-J                     ...     22
   Maximum angular momentum in Aux-J        ...      4
Auxiliary J/K fitting basis                 ... NOT available
Auxiliary Correlation fitting basis         ... NOT available
Auxiliary 'external' fitting basis          ... NOT available
Integral threshold                          ...     2.500000e-11
Primitive cut-off                           ...     2.500000e-12
Primitive pair pre-selection threshold      ...     2.500000e-12

Calculating pre-screening integrals         ... done (  0.1 sec) Dimension = 17
Organizing shell pair data                  ... done (  0.0 sec)
Shell pair information
Total number of shell pairs                 ...       153
Shell pairs after pre-screening             ...       153
Total number of primitive shell pairs       ...       600
Primitive shell pairs kept                  ...       573
          la=0 lb=0:     36 shell pairs
          la=1 lb=0:     48 shell pairs
          la=1 lb=1:     21 shell pairs
          la=2 lb=0:     16 shell pairs
          la=2 lb=1:     12 shell pairs
          la=2 lb=2:      3 shell pairs
          la=3 lb=0:      8 shell pairs
          la=3 lb=1:      6 shell pairs
          la=3 lb=2:      2 shell pairs
          la=3 lb=3:      1 shell pairs

Calculating one electron integrals          ... done (  0.0 sec)
Calculating RI/J V-Matrix + Cholesky decomp.... done (  0.0 sec)
Calculating Nuclear repulsion               ... done (  0.0 sec) ENN=      5.561278290732 Eh

SHARK setup successfully completed in   0.2 seconds

Maximum memory used throughout the entire GTOINT-calculation: 15.2 MB

Diagonalization of the overlap matrix:
Smallest eigenvalue                        ... 2.193e-02
Time for diagonalization                   ...    0.002 sec
Threshold for overlap eigenvalues          ... 1.000e-08
Number of eigenvalues below threshold      ... 0
Time for construction of square roots      ...    0.007 sec
Total time needed                          ...    0.009 sec

-------------------
DFT GRID GENERATION
-------------------

General Integration Accuracy     IntAcc      ... 4.388
Radial Grid Type                 RadialGrid  ... OptM3 with GC (2021)
Angular Grid (max. ang.)         AngularGrid ... 4 (Lebedev-302)
Angular grid pruning method      GridPruning ... 4 (adaptive)
Weight generation scheme         WeightScheme... Becke
Basis function cutoff            BFCut       ... 1.0000e-11
Integration weight cutoff        WCut        ... 1.0000e-14
Angular grids for H and He will be reduced by one unit
Partially contracted basis set               ... off
Rotationally invariant grid construction     ... off

Total number of grid points                  ...    10693
Total number of batches                      ...      169
Average number of points per batch           ...       63
Average number of grid points per atom       ...     5347
Time for grid setup =    0.155 sec

--------------------
COSX GRID GENERATION
--------------------

GRIDX 1
-------
General Integration Accuracy     IntAcc      ... 3.816
Radial Grid Type                 RadialGrid  ... OptM3 with GC (2021)
Angular Grid (max. ang.)         AngularGrid ... 1 (Lebedev-50)
Angular grid pruning method      GridPruning ... 4 (adaptive)
Weight generation scheme         WeightScheme... Becke
Basis function cutoff            BFCut       ... 1.0000e-11
Integration weight cutoff        WCut        ... 1.0000e-14
Angular grids for H and He will be reduced by one unit
Partially contracted basis set               ... on
Rotationally invariant grid construction     ... off

Total number of grid points                  ...     1286
Total number of batches                      ...       21
Average number of points per batch           ...       61
Average number of grid points per atom       ...      643
UseSFitting                                  ... on

GRIDX 2
-------
General Integration Accuracy     IntAcc      ... 4.020
Radial Grid Type                 RadialGrid  ... OptM3 with GC (2021)
Angular Grid (max. ang.)         AngularGrid ... 2 (Lebedev-110)
Angular grid pruning method      GridPruning ... 4 (adaptive)
Weight generation scheme         WeightScheme... Becke
Basis function cutoff            BFCut       ... 1.0000e-11
Integration weight cutoff        WCut        ... 1.0000e-14
Angular grids for H and He will be reduced by one unit
Partially contracted basis set               ... on
Rotationally invariant grid construction     ... off

Total number of grid points                  ...     2792
Total number of batches                      ...       45
Average number of points per batch           ...       62
Average number of grid points per atom       ...     1396
UseSFitting                                  ... on

GRIDX 3
-------
General Integration Accuracy     IntAcc      ... 4.338
Radial Grid Type                 RadialGrid  ... OptM3 with GC (2021)
Angular Grid (max. ang.)         AngularGrid ... 3 (Lebedev-194)
Angular grid pruning method      GridPruning ... 4 (adaptive)
Weight generation scheme         WeightScheme... Becke
Basis function cutoff            BFCut       ... 1.0000e-11
Integration weight cutoff        WCut        ... 1.0000e-14
Angular grids for H and He will be reduced by one unit
Partially contracted basis set               ... on
Rotationally invariant grid construction     ... off

Total number of grid points                  ...     6825
Total number of batches                      ...      108
Average number of points per batch           ...       63
Average number of grid points per atom       ...     3413
UseSFitting                                  ... on

Time for X-Grid setup             =    0.145 sec

--------------
SCF ITERATIONS
--------------
ITER       Energy         Delta-E        Max-DP      RMS-DP      [F,P]     Damp
               ***  Starting incremental Fock matrix formation  ***
  0   -341.5038212161   0.000000000000 0.00013838  0.00000866  0.0023596 0.7000
  1   -341.5038226981  -0.000001482002 0.00012981  0.00000779  0.0018039 0.7000
                               ***Turning on DIIS***
  2   -341.5038238301  -0.000001132049 0.00035218  0.00002063  0.0013303 0.0000
  3   -341.5038267178  -0.000002887650 0.00020085  0.00000807  0.0001699 0.0000
               *** Restarting incremental Fock matrix formation ***
                                   *** Resetting DIIS ***
  4   -341.5038267547  -0.000000036882 0.00006428  0.00000222  0.0000457 0.0000
  5   -341.5038267610  -0.000000006328 0.00001529  0.00000063  0.0000104 0.0000
  6   -341.5038267614  -0.000000000426 0.00000702  0.00000027  0.0000034 0.0000
                 **** Energy Check signals convergence ****

               *****************************************************
               *                     SUCCESS                       *
               *           SCF CONVERGED AFTER   7 CYCLES          *
               *****************************************************

Old exchange energy                            =     -6.075746638 Eh
New exchange energy                            =     -6.075743877 Eh
Exchange energy change after final integration =      0.000002761 Eh
Total energy after final integration           =   -341.503824001 Eh
Final COS-X integration done in                =     0.573 sec
Total Energy       :         -341.50382400 Eh           -9292.79149 eV
  Last Energy change         ...   -1.7059e-10  Tolerance :   1.0000e-08
  Last MAX-Density change    ...    0.0000e+00  Tolerance :   1.0000e-07
             **** THE GBW FILE WAS UPDATED (ph+.gbw) ****
             **** DENSITY ph+.scfp WAS UPDATED ****
             **** ENERGY FILE WAS UPDATED (ph+.en.tmp) ****
----------------------
UHF SPIN CONTAMINATION
----------------------

Warning: in a DFT calculation there is little theoretical justification to 
         calculate <S**2> as in Hartree-Fock theory. We will do it anyways
         but you should keep in mind that the values have only limited relevance

Expectation value of <S**2>     :     0.754407
Ideal value S*(S+1) for S=0.5   :     0.750000
Deviation                       :     0.004407

             **** THE GBW FILE WAS UPDATED (ph+.gbw) ****
[...]
      dz2     :     0.016248  d :     0.064640
      dxz     :     0.001385
      dyz     :     0.000018
      dx2y2   :     0.044557
      dxy     :     0.002432
      f0      :    -0.000002  f :     0.003151
      f+1     :     0.001814
      f-1     :     0.000024
      f+2     :    -0.000004
      f-2     :    -0.000000
      f+3     :     0.001170
      f-3     :     0.000150
  1 H s       :     0.767293  s :     0.767293
      pz      :     0.002685  p :     0.015526
      px      :     0.012666
      py      :     0.000175

SPIN
  0 P s       :     0.009666  s :     0.009666
      pz      :     0.995925  p :     1.005311
      px      :     0.009271
      py      :     0.000115
      dz2     :     0.001476  d :     0.003154
      dxz     :     0.001383
      dyz     :     0.000018
      dx2y2   :     0.000262
      dxy     :     0.000014
      f0      :    -0.000003  f :    -0.001166
      f+1     :    -0.001113
      f-1     :    -0.000015
      f+2     :    -0.000004
      f-2     :    -0.000000
      f+3     :    -0.000028
      f-3     :    -0.000004
  1 H s       :    -0.019717  s :    -0.019717
      pz      :     0.002681  p :     0.002752
      px      :     0.000070
      py      :     0.000001


                     *******************************
                     * LOEWDIN POPULATION ANALYSIS *
                     *******************************

-------------------------------------------
LOEWDIN ATOMIC CHARGES AND SPIN POPULATIONS
-------------------------------------------
   0 P :    0.952912    1.005207
   1 H :    0.047088   -0.005207

----------------------------------------------------
LOEWDIN REDUCED ORBITAL CHARGES AND SPIN POPULATIONS
----------------------------------------------------
CHARGE
  0 P s       :     5.744991  s :     5.744991
      pz      :     2.991043  p :     8.220375
      px      :     3.213220
      py      :     2.016112
      dz2     :     0.018746  d :     0.074894
      dxz     :     0.001033
      dyz     :     0.000014
      dx2y2   :     0.052249
      dxy     :     0.002853
      f0      :     0.000013  f :     0.006827
      f+1     :     0.003069
      f-1     :     0.000041
      f+2     :     0.000028
      f-2     :     0.000002
      f+3     :     0.003257
      f-3     :     0.000418
  1 H s       :     0.898735  s :     0.898735
      pz      :     0.007869  p :     0.054178
      px      :     0.045701
      py      :     0.000608

SPIN
  0 P s       :     0.009449  s :     0.009449
      pz      :     0.991045  p :     0.993750
      px      :     0.002677
      py      :     0.000028
      dz2     :     0.002715  d :     0.003127
      dxz     :     0.001031
      dyz     :     0.000014
      dx2y2   :    -0.000600
      dxy     :    -0.000033
      f0      :     0.000012  f :    -0.001120
      f+1     :    -0.000980
      f-1     :    -0.000013
      f+2     :     0.000028
      f-2     :     0.000002
      f+3     :    -0.000148
      f-3     :    -0.000019
  1 H s       :    -0.014046  s :    -0.014046
      pz      :     0.007869  p :     0.008839
      px      :     0.000958
      py      :     0.000013


                      *****************************
                      * MAYER POPULATION ANALYSIS *
                      *****************************

  NA   - Mulliken gross atomic population
  ZA   - Total nuclear charge
  QA   - Mulliken gross atomic charge
  VA   - Mayer's total valence
  BVA  - Mayer's bonded valence
  FA   - Mayer's free valence

  ATOM       NA         ZA         QA         VA         BVA        FA
  0 P     14.2172    15.0000     0.7828     1.9256     0.9224     1.0032
  1 H      0.7828     1.0000     0.2172     0.9228     0.9224     0.0004

  Mayer bond orders larger than 0.100000
B(  0-P ,  1-H ) :   0.9224 

-------
TIMINGS
-------

Total SCF time: 0 days 0 hours 0 min 3 sec 

Total time                  ....       3.800 sec
Sum of individual times     ....       3.570 sec  ( 93.9%)

Fock matrix formation       ....       3.292 sec  ( 86.6%)
  Split-RI-J                ....       0.234 sec  (  7.1% of F)
  Chain of spheres X        ....       1.958 sec  ( 59.5% of F)
  XC integration            ....       0.928 sec  ( 28.2% of F)
    Basis function eval.    ....       0.111 sec  ( 12.0% of XC)
    Density eval.           ....       0.269 sec  ( 29.0% of XC)
    XC-Functional eval.     ....       0.331 sec  ( 35.7% of XC)
    XC-Potential eval.      ....       0.102 sec  ( 11.0% of XC)
Diagonalization             ....       0.004 sec  (  0.1%)
Density matrix formation    ....       0.001 sec  (  0.0%)
Population analysis         ....       0.023 sec  (  0.6%)
Initial guess               ....       0.002 sec  (  0.1%)
Orbital Transformation      ....       0.000 sec  (  0.0%)
Orbital Orthonormalization  ....       0.000 sec  (  0.0%)
DIIS solution               ....       0.006 sec  (  0.2%)
Grid generation             ....       0.242 sec  (  6.4%)

Maximum memory used throughout the entire SCF-calculation: 60.6 MB


-------------------------------------------------------------------------------
                          DFT DISPERSION CORRECTION                            
                                                                               
                              DFTD3 V3.1  Rev 1                                
                              USING zero damping                               
-------------------------------------------------------------------------------
The omegaB97X-D3 functional is recognized. Fit by Chai et al.
Active option DFTDOPT                   ...         3   

molecular C6(AA) [au] = 230.570785 


            DFT-D V3
 parameters
 s6 scaling factor         :     1.0000 
 rs6 scaling factor        :     1.2810 
 s8 scaling factor         :     1.0000 
 rs8 scaling factor        :     1.0940 
 Damping factor alpha6     :    14.0000 
 Damping factor alpha8     :    16.0000 
 ad hoc parameters k1-k3   :    16.0000     1.3333    -4.0000 

 Edisp/kcal,au: -0.000107591801  -0.000000171458 
 E6   /kcal   :  -0.000013646 
 E8   /kcal   :  -0.000093945 
 % E8         :  87.316433281 

-------------------------   ----------------
Dispersion correction           -0.000000171
-------------------------   ----------------


-------------------------   --------------------
FINAL SINGLE POINT ENERGY      -341.503824213199
-------------------------   --------------------

                                *** OPTIMIZATION RUN DONE ***

                            ***************************************
                            *     ORCA property calculations      *
                            ***************************************

                                    ---------------------
                                    Active property flags
                                    ---------------------
   (+) Dipole Moment


------------------------------------------------------------------------------
                       ORCA ELECTRIC PROPERTIES CALCULATION
------------------------------------------------------------------------------

Dipole Moment Calculation                       ... on
Quadrupole Moment Calculation                   ... off
Polarizability Calculation                      ... off
GBWName                                         ... ph+.gbw
Electron density                                ... ph+.scfp
The origin for moment calculation is the CENTER OF MASS  = (-7.632632,  0.830107  0.000000)

-------------
DIPOLE MOMENT
-------------
                                X             Y             Z
Electronic contribution:     -0.96724       0.11148      -0.00000
Nuclear contribution   :      1.32855      -0.15318       0.00000
                        -----------------------------------------
Total Dipole Moment    :      0.36132      -0.04170      -0.00000
                        -----------------------------------------
Magnitude (a.u.)       :      0.36371
Magnitude (Debye)      :      0.92449



--------------------
Rotational spectrum 
--------------------
 
Rotational constants in cm-1:     0.000000     8.472607     8.472607 
Rotational constants in MHz :     0.000000 254002.375359 254002.375359 

 Dipole components along the rotational axes: 
x,y,z [a.u.] :    -0.363713    -0.000038    -0.000000 
x,y,z [Debye]:    -0.924486    -0.000097    -0.000000 

 

-------------------------------------------------------------------------------
                               ORCA SCF HESSIAN
-------------------------------------------------------------------------------

                   --------- SHARK INITIALIZATION DONE ---------

Hessian of the Kohn-Sham DFT energy:
Kohn-Sham wavefunction type                      ... UKS
Hartree-Fock exchange scaling                    ...    0.196
Number of operators                              ...    2
Number of atoms                                  ...    2
Basis set dimensions                             ...   43
Integral neglect threshold                       ... 2.5e-11
Integral primitive cutoff                        ... 2.5e-12

Setting up DFT Hessian calculations              ... 

HESS GRID
---------

General Integration Accuracy     IntAcc      ... 4.629
Radial Grid Type                 RadialGrid  ... OptM3 with GC (2021)
Angular Grid (max. ang.)         AngularGrid ... 5 (Lebedev-434)
Angular grid pruning method      GridPruning ... 4 (adaptive)
Weight generation scheme         WeightScheme... Becke
Basis function cutoff            BFCut       ... 1.0000e-11
Integration weight cutoff        WCut        ... 1.0000e-14
Angular grids for H and He will be reduced by one unit
Partially contracted basis set               ... off
Rotationally invariant grid construction     ... off

Total number of grid points                  ...    15717
Total number of batches                      ...      247
Average number of points per batch           ...       63
Average number of grid points per atom       ...     7859

Building densities                               ... done   (      0.0 sec)
Calculating rho(r) on the grid                   ... done   (      0.1 sec)
Building xc-kernel on the grid                   ... done   (      0.7 sec)
                                                     done   (      1.1 sec)

Nuclear repulsion Hessian  (SHARK)               ... done   (      0.0 sec)

----------------------------------------------
Forming right-hand sides of CP-SCF equations     ...
----------------------------------------------
One electron integral derivatives  (SHARK)       ... done   (      0.0 sec)
Transforming the overlap derivative matrices     ... done   (      0.0 sec)
Making the Q(x) pseudodensities                  ... done   (      0.0 sec)
Adding the E*S(x)*S(y) terms to the Hessian      ... done   (      0.0 sec)
Calculating energy weighted overlap derivatives  ... done   (      0.1 sec)
Two electron integral derivatives (SHARK-RI)     ... done   (      0.5 sec)
Exchange-correlation integral derivatives        ... done   (      2.1 sec)
tr(F(y)Q(x)) contribution to the Hessian         ... done   (      0.0 sec)
Response fock operator R(S(x)) (SHARK-RIJCOSX)   ... done   (      0.7 sec)
XC Response fock operator R(S(x))                ... done   (      0.4 sec)
tr(F(y)S(x)) contribution to the Hessian         ... done   (      0.0 sec)
Transforming and finalizing RHSs                 ... done   (      0.0 sec)

----------------------------------------------
Solving the CP-SCF equations (RIJCOSX)           ...
----------------------------------------------
     CP-SCF ITERATION   0:   8.8962e-02 (   0.5 sec   0/  6 done)
     CP-SCF ITERATION   1:   1.8968e-02 (   0.4 sec   0/  6 done)
     CP-SCF ITERATION   2:   6.4557e-03 (   0.3 sec   0/  6 done)
     CP-SCF ITERATION   3:   1.4652e-03 (   0.3 sec   0/  6 done)
     CP-SCF ITERATION   4:   4.5211e-04 (   0.3 sec   0/  6 done)
     CP-SCF ITERATION   5:   3.1007e-04 (   0.3 sec   2/  6 done)
     CP-SCF ITERATION   6:   1.2628e-03 (   0.3 sec   2/  6 done)
     CP-SCF ITERATION   7:   2.0689e-03 (   0.3 sec   4/  6 done)
     CP-SCF ITERATION   8:   1.6172e-04 (   0.3 sec   4/  6 done)
     CP-SCF ITERATION   9:   1.9795e-05 (   0.3 sec   6/  6 done)
                    *** THE CP-SCF HAS CONVERGED ***

                                                 ... done   (      3.7 sec)
Forming perturbed density Hessian contributions  ... done   (      0.0 sec)
2nd integral derivative contribs (SHARK-RI)      ... done   (      2.7 sec)
Exchange-correlation Hessian                     ... done   (      2.1 sec)
Dispersion correction in the Hessian             ... done   (      2.0 sec)
Dipole derivatives                               ... (center of mass: -7.632632,  0.830107  0.000000)done   (      0.2 sec)

Total SCF Hessian time: 0 days 0 hours 0 min 16 sec 

Writing the Hessian file to the disk             ... done


Maximum memory used throughout the entire SCFHESS-calculation: 116.4 MB

-----------------------
VIBRATIONAL FREQUENCIES
-----------------------

Scaling factor for frequencies =  1.000000000  (already applied!)

   0:         0.00 cm**-1
   1:         0.00 cm**-1
   2:         0.00 cm**-1
   3:         0.00 cm**-1
   4:         0.00 cm**-1
   5:      2416.24 cm**-1


------------
NORMAL MODES
------------

These modes are the Cartesian displacements weighted by the diagonal matrix
M(i,i)=1/sqrt(m[i]) where m[i] is the mass of the displaced atom
Thus, these vectors are normalized but *not* orthogonal

                  0          1          2          3          4          5    
      0       0.000000   0.000000   0.000000   0.000000   0.000000   0.032312
      1       0.000000   0.000000   0.000000   0.000000   0.000000  -0.003725
      2       0.000000   0.000000   0.000000   0.000000   0.000000   0.000000
      3       0.000000   0.000000   0.000000   0.000000   0.000000  -0.992893
      4       0.000000   0.000000   0.000000   0.000000   0.000000   0.114476
      5       0.000000   0.000000   0.000000   0.000000   0.000000   0.000000


-----------
IR SPECTRUM
-----------

 Mode   freq       eps      Int      T**2         TX        TY        TZ
       cm**-1   L/(mol*cm) km/mol    a.u.
----------------------------------------------------------------------------
  5:   2416.24   0.000190    0.96  0.000025  (-0.004920  0.000621 -0.000000)

* The epsilon (eps) is given for a Dirac delta lineshape.
** The dipole moment derivative (T) already includes vibrational overlap.

The first frequency considered to be a vibration is 5
The total number of vibrations considered is 1


--------------------------
THERMOCHEMISTRY AT 298.15K
--------------------------

Temperature         ... 298.15 K
Pressure            ... 1.00 atm
Total Mass          ... 31.98 AMU
The molecule is recognized as being linear

Throughout the following assumptions are being made:
  (1) The electronic state is orbitally nondegenerate
      but the spin degeneracy is treated
  (2) There are no thermally accessible electronically excited states
  (3) Hindered rotations indicated by low frequency modes are not
      treated as such but are treated as vibrations and this may
      cause some error
  (4) All equations used are the standard statistical mechanics
      equations for an ideal gas
  (5) All vibrations are strictly harmonic

freq.    2416.24  E(vib)   ...       0.00 

------------
INNER ENERGY
------------

The inner energy is: U= E(el) + E(ZPE) + E(vib) + E(rot) + E(trans)
    E(el)   - is the total energy from the electronic structure calculation
              = E(kin-el) + E(nuc-el) + E(el-el) + E(nuc-nuc)
    E(ZPE)  - the the zero temperature vibrational energy from the frequency calculation
    E(vib)  - the the finite temperature correction to E(ZPE) due to population
              of excited vibrational states
    E(rot)  - is the rotational thermal energy
    E(trans)- is the translational thermal energy

Summary of contributions to the inner energy U:
Electronic energy                ...   -341.50382421 Eh
Zero point energy                ...      0.00550460 Eh       3.45 kcal/mol
Thermal vibrational correction   ...      0.00000010 Eh       0.00 kcal/mol
Thermal rotational correction    ...      0.00094418 Eh       0.59 kcal/mol
Thermal translational correction ...      0.00141627 Eh       0.89 kcal/mol
-----------------------------------------------------------------------
Total thermal energy                   -341.49595907 Eh


Summary of corrections to the electronic energy:
(perhaps to be used in another calculation)
Total thermal correction                  0.00236055 Eh       1.48 kcal/mol
Non-thermal (ZPE) correction              0.00550460 Eh       3.45 kcal/mol
-----------------------------------------------------------------------
Total correction                          0.00786514 Eh       4.94 kcal/mol


--------
ENTHALPY
--------

The enthalpy is H = U + kB*T
                kB is Boltzmann's constant
Total free energy                 ...   -341.49595907 Eh 
Thermal Enthalpy correction       ...      0.00094421 Eh       0.59 kcal/mol
-----------------------------------------------------------------------
Total Enthalpy                    ...   -341.49501486 Eh


Note: Rotational entropy computed according to Herzberg 
Infrared and Raman Spectra, Chapter V,1, Van Nostrand Reinhold, 1945 
Point Group:  Cinfv, Symmetry Number:   1  
Rotational constants in cm-1:     0.000000     8.472607     8.472607 

Vibrational entropy computed according to the QRRHO of S. Grimme
Chem.Eur.J. 2012 18 9955


-------
ENTROPY
-------

The entropy contributions are T*S = T*(S(el)+S(vib)+S(rot)+S(trans))
     S(el)   - electronic entropy
     S(vib)  - vibrational entropy
     S(rot)  - rotational entropy
     S(trans)- translational entropy
The entropies will be listed as multiplied by the temperature to get
units of energy

Electronic entropy                ...      0.00065446 Eh      0.41 kcal/mol
Vibrational entropy               ...      0.00000010 Eh      0.00 kcal/mol
Rotational entropy                ...      0.00396270 Eh      2.49 kcal/mol
Translational entropy             ...      0.01725670 Eh     10.83 kcal/mol
-----------------------------------------------------------------------
Final entropy term                ...      0.02187396 Eh     13.73 kcal/mol


-------------------
GIBBS FREE ENERGY
-------------------

The Gibbs free energy is G = H - T*S

Total enthalpy                    ...   -341.49501486 Eh 
Total entropy correction          ...     -0.02187396 Eh    -13.73 kcal/mol
-----------------------------------------------------------------------
Final Gibbs free energy         ...   -341.51688882 Eh

For completeness - the Gibbs free energy minus the electronic energy
G-E(el)                           ...     -0.01306460 Eh     -8.20 kcal/mol


Timings for individual modules:

Sum of individual times         ...       46.304 sec (=   0.772 min)
GTO integral calculation        ...        1.288 sec (=   0.021 min)   2.8 %
SCF iterations                  ...       22.617 sec (=   0.377 min)  48.8 %
SCF Gradient evaluation         ...        5.618 sec (=   0.094 min)  12.1 %
Geometry relaxation             ...        0.444 sec (=   0.007 min)   1.0 %
Analytical frequency calculation...       16.337 sec (=   0.272 min)  35.3 %
                             ****ORCA TERMINATED NORMALLY****
TOTAL RUN TIME: 0 days 0 hours 0 minutes 48 seconds 219 msec
