
                                 *****************
                                 * O   R   C   A *
                                 *****************

                                            #,                                       
                                            ###                                      
                                            ####                                     
                                            #####                                    
                                            ######                                   
                                           ########,                                 
                                     ,,################,,,,,                         
                               ,,#################################,,                 
                          ,,##########################################,,             
                       ,#########################################, ''#####,          
                    ,#############################################,,   '####,        
                  ,##################################################,,,,####,       
                ,###########''''           ''''###############################       
              ,#####''   ,,,,##########,,,,          '''####'''          '####       
            ,##' ,,,,###########################,,,                        '##       
           ' ,,###''''                  '''############,,,                           
         ,,##''                                '''############,,,,        ,,,,,,###''
      ,#''                                            '''#######################'''  
     '                                                          ''''####''''         
             ,#######,   #######,   ,#######,      ##                                
            ,#'     '#,  ##    ##  ,#'     '#,    #''#        ######   ,####,        
            ##       ##  ##   ,#'  ##            #'  '#       #        #'  '#        
            ##       ##  #######   ##           ,######,      #####,   #    #        
            '#,     ,#'  ##    ##  '#,     ,#' ,#      #,         ##   #,  ,#        
             '#######'   ##     ##  '#######'  #'      '#     #####' # '####'        



                  #######################################################
                  #                        -***-                        #
                  #          Department of theory and spectroscopy      #
                  #    Directorship and core code : Frank Neese         #
                  #        Max Planck Institute fuer Kohlenforschung    #
                  #                Kaiser Wilhelm Platz 1               #
                  #                 D-45470 Muelheim/Ruhr               #
                  #                      Germany                        #
                  #                                                     #
                  #                  All rights reserved                #
                  #                        -***-                        #
                  #######################################################


                         Program Version 5.0.2 -  RELEASE  -


 With contributions from (in alphabetic order):
   Daniel Aravena         : Magnetic Suceptibility
   Michael Atanasov       : Ab Initio Ligand Field Theory (pilot matlab implementation)
   Alexander A. Auer      : GIAO ZORA, VPT2 properties, NMR spectrum
   Ute Becker             : Parallelization
   Giovanni Bistoni       : ED, misc. LED, open-shell LED, HFLD
   Martin Brehm           : Molecular dynamics
   Dmytro Bykov           : SCF Hessian
   Vijay G. Chilkuri      : MRCI spin determinant printing, contributions to CSF-ICE
   Dipayan Datta          : RHF DLPNO-CCSD density
   Achintya Kumar Dutta   : EOM-CC, STEOM-CC
   Dmitry Ganyushin       : Spin-Orbit,Spin-Spin,Magnetic field MRCI
   Miquel Garcia          : C-PCM and meta-GGA Hessian, CC/C-PCM, Gaussian charge scheme
   Yang Guo               : DLPNO-NEVPT2, F12-NEVPT2, CIM, IAO-localization
   Andreas Hansen         : Spin unrestricted coupled pair/coupled cluster methods
   Benjamin Helmich-Paris : MC-RPA, TRAH-SCF, COSX integrals
   Lee Huntington         : MR-EOM, pCC
   Robert Izsak           : Overlap fitted RIJCOSX, COSX-SCS-MP3, EOM
   Marcus Kettner         : VPT2
   Christian Kollmar      : KDIIS, OOCD, Brueckner-CCSD(T), CCSD density, CASPT2, CASPT2-K
   Simone Kossmann        : Meta GGA functionals, TD-DFT gradient, OOMP2, MP2 Hessian
   Martin Krupicka        : Initial AUTO-CI
   Lucas Lang             : DCDCAS
   Marvin Lechner         : AUTO-CI (C++ implementation), FIC-MRCC
   Dagmar Lenk            : GEPOL surface, SMD
   Dimitrios Liakos       : Extrapolation schemes; Compound Job, initial MDCI parallelization
   Dimitrios Manganas     : Further ROCIS development; embedding schemes
   Dimitrios Pantazis     : SARC Basis sets
   Anastasios Papadopoulos: AUTO-CI, single reference methods and gradients
   Taras Petrenko         : DFT Hessian,TD-DFT gradient, ASA, ECA, R-Raman, ABS, FL, XAS/XES, NRVS
   Peter Pinski           : DLPNO-MP2, DLPNO-MP2 Gradient
   Christoph Reimann      : Effective Core Potentials
   Marius Retegan         : Local ZFS, SOC
   Christoph Riplinger    : Optimizer, TS searches, QM/MM, DLPNO-CCSD(T), (RO)-DLPNO pert. Triples
   Tobias Risthaus        : Range-separated hybrids, TD-DFT gradient, RPA, STAB
   Michael Roemelt        : Original ROCIS implementation
   Masaaki Saitow         : Open-shell DLPNO-CCSD energy and density
   Barbara Sandhoefer     : DKH picture change effects
   Avijit Sen             : IP-ROCIS
   Kantharuban Sivalingam : CASSCF convergence, NEVPT2, FIC-MRCI
   Bernardo de Souza      : ESD, SOC TD-DFT
   Georgi Stoychev        : AutoAux, RI-MP2 NMR, DLPNO-MP2 response
   Willem Van den Heuvel  : Paramagnetic NMR
   Boris Wezisla          : Elementary symmetry handling
   Frank Wennmohs         : Technical directorship


 We gratefully acknowledge several colleagues who have allowed us to
 interface, adapt or use parts of their codes:
   Stefan Grimme, W. Hujo, H. Kruse, P. Pracht,  : VdW corrections, initial TS optimization,
                  C. Bannwarth, S. Ehlert          DFT functionals, gCP, sTDA/sTD-DF
   Ed Valeev, F. Pavosevic, A. Kumar             : LibInt (2-el integral package), F12 methods
   Garnet Chan, S. Sharma, J. Yang, R. Olivares  : DMRG
   Ulf Ekstrom                                   : XCFun DFT Library
   Mihaly Kallay                                 : mrcc  (arbitrary order and MRCC methods)
   Jiri Pittner, Ondrej Demel                    : Mk-CCSD
   Frank Weinhold                                : gennbo (NPA and NBO analysis)
   Christopher J. Cramer and Donald G. Truhlar   : smd solvation model
   Lars Goerigk                                  : TD-DFT with DH, B97 family of functionals
   V. Asgeirsson, H. Jonsson                     : NEB implementation
   FAccTs GmbH                                   : IRC, NEB, NEB-TS, DLPNO-Multilevel, CI-OPT
                                                   MM, QMMM, 2- and 3-layer-ONIOM, Crystal-QMMM,
                                                   LR-CPCM, SF, NACMEs, symmetry and pop. for TD-DFT,
                                                   nearIR, NL-DFT gradient (VV10), updates on ESD,
                                                   ML-optimized integration grids
   S Lehtola, MJT Oliveira, MAL Marques          : LibXC Library
   Liviu Ungur et al                             : ANISO software


 Your calculation uses the libint2 library for the computation of 2-el integrals
 For citations please refer to: http://libint.valeyev.net

 Your ORCA version has been built with support for libXC version: 5.1.0
 For citations please refer to: https://tddft.org/programs/libxc/

 This ORCA versions uses:
   CBLAS   interface :  Fast vector & matrix operations
   LAPACKE interface :  Fast linear algebra routines
   Shared memory     :  Shared parallel matrices


XCFun DFT library Copyright 2009-2010 Ulf Ekstrom and contributors.
See http://admol.org/xcfun for more information.
This is free software; see the source code for copying conditions.
There is ABSOLUTELY NO WARRANTY; not even for MERCHANTABILITY or FITNESS FOR A PARTICULAR PURPOSE.
For details see the documentation.
Scientific users of this library should cite U. Ekstrom, L. Visscher, R. Bast, A. J. Thorvaldsen and K. Ruud;
J.Chem.Theor.Comp. 2010, DOI: 10.1021/ct100117s
XCFun Version 0.99 

================================================================================

----- Orbital basis set information -----
Your calculation utilizes the basis: def2-TZVP
   F. Weigend and R. Ahlrichs, Phys. Chem. Chem. Phys. 7, 3297 (2005).

----- AuxJ basis set information -----
Your calculation utilizes the auxiliary basis: def2/J
   F. Weigend, Phys. Chem. Chem. Phys. 8, 1057 (2006).

================================================================================
                                        WARNINGS
                       Please study these warnings very carefully!
================================================================================


WARNING: your system is open-shell and RHF/RKS was chosen
  ===> : WILL SWITCH to UHF/UKS


WARNING: Geometry Optimization
  ===> : Switching off AutoStart
         For restart on a previous wavefunction, please use MOREAD

WARNING: Minnesota functionals are quite sensitive to the integration grid.
         see SE Wheeler, KN Houk, JCTC 2010, 6, 395,
             N Mardirossian, M Head-Gordon, JCTC 2016, 12, 4303.
         DEFGRID3 seems to be a minimum grid for reliable results with these functionals!
  ===> : Please increase the integration grid!


INFO   : the flag for use of the SHARK integral package has been found!

================================================================================
                                       INPUT FILE
================================================================================
NAME = ph3+.inp
|  1> # avogadro generated ORCA input file 
|  2> # PH3+ DUPLETO - FREQ
|  3> # 
|  4> ! m062x def2-tzvp OPT FREQ
|  5> %maxcore 3000
|  6> 
|  7> * xyz 1 2
|  8>   P   -1.49001204882609     -0.30892476315604      0.27694850121426
|  9>   H   -0.35974050626098      0.41243123471272     -0.09426710350383
| 10>   H   -1.43124737796522     -1.64910389006585     -0.09201766150340
| 11>   H   -2.68083006694771      0.30952741850917     -0.09066373620703
| 12> *
| 13> 
| 14>                          ****END OF INPUT****
================================================================================

                       *****************************
                       * Geometry Optimization Run *
                       *****************************

Geometry optimization settings:
Update method            Update   .... BFGS
Choice of coordinates    CoordSys .... Z-matrix Internals
Initial Hessian          InHess   .... Almoef's Model

Convergence Tolerances:
Energy Change            TolE     ....  5.0000e-06 Eh
Max. Gradient            TolMAXG  ....  3.0000e-04 Eh/bohr
RMS Gradient             TolRMSG  ....  1.0000e-04 Eh/bohr
Max. Displacement        TolMAXD  ....  4.0000e-03 bohr
RMS Displacement         TolRMSD  ....  2.0000e-03 bohr
Strict Convergence                ....  False
------------------------------------------------------------------------------
                        ORCA OPTIMIZATION COORDINATE SETUP
------------------------------------------------------------------------------

The optimization will be done in new redundant internal coordinates
Making redundant internal coordinates   ...  (new redundants) done
Evaluating the initial hessian          ...  (Almloef) done
Evaluating the coordinates              ...  done
Calculating the B-matrix                .... done
Calculating the G-matrix                .... done
Diagonalizing the G-matrix              .... done
The first mode is                       ....    1
The number of degrees of freedom        ....    6

    -----------------------------------------------------------------
                    Redundant Internal Coordinates


    -----------------------------------------------------------------
         Definition                    Initial Value    Approx d2E/dq
    -----------------------------------------------------------------
      1. B(H   1,P   0)                  1.3913         0.400165   
      2. B(H   2,P   0)                  1.3913         0.400165   
      3. B(H   3,P   0)                  1.3913         0.400165   
      4. A(H   1,P   0,H   3)          113.2264         0.353381   
      5. A(H   2,P   0,H   3)          113.2205         0.353381   
      6. A(H   1,P   0,H   2)          113.2264         0.353381   
      7. I(H   1,H   3,H   2,P   0)    -44.2259         0.011684   
    -----------------------------------------------------------------

Number of atoms                         .... 4
Number of degrees of freedom            .... 7

         *************************************************************
         *                GEOMETRY OPTIMIZATION CYCLE   1            *
         *************************************************************
---------------------------------
CARTESIAN COORDINATES (ANGSTROEM)
---------------------------------
  P     -1.490012   -0.308925    0.276949
  H     -0.359741    0.412431   -0.094267
  H     -1.431247   -1.649104   -0.092018
  H     -2.680830    0.309527   -0.090664

----------------------------
CARTESIAN COORDINATES (A.U.)
----------------------------
  NO LB      ZA    FRAG     MASS         X           Y           Z
   0 P    15.0000    0    30.974   -2.815715   -0.583783    0.523357
   1 H     1.0000    0     1.008   -0.679811    0.779382   -0.178139
   2 H     1.0000    0     1.008   -2.704666   -3.116355   -0.173888
   3 H     1.0000    0     1.008   -5.066035    0.584922   -0.171330

--------------------------------
INTERNAL COORDINATES (ANGSTROEM)
--------------------------------
 P      0   0   0     0.000000000000     0.00000000     0.00000000
 H      1   0   0     1.391283314347     0.00000000     0.00000000
 H      1   2   0     1.391283367246   113.22637604     0.00000000
 H      1   2   3     1.391283368114   113.22637312   229.37932692

---------------------------
INTERNAL COORDINATES (A.U.)
---------------------------
 P      0   0   0     0.000000000000     0.00000000     0.00000000
 H      1   0   0     2.629144438810     0.00000000     0.00000000
 H      1   2   0     2.629144538776   113.22637604     0.00000000
 H      1   2   3     2.629144540416   113.22637312   229.37932692

---------------------
BASIS SET INFORMATION
---------------------
There are 2 groups of distinct atoms

 Group   1 Type P   : 14s9p3d1f contracted to 5s5p2d1f pattern {73211/51111/21/1}
 Group   2 Type H   : 5s1p contracted to 3s1p pattern {311/1}

Atom   0P    basis set group =>   1
Atom   1H    basis set group =>   2
Atom   2H    basis set group =>   2
Atom   3H    basis set group =>   2
---------------------------------
AUXILIARY/J BASIS SET INFORMATION
---------------------------------
There are 2 groups of distinct atoms

 Group   1 Type P   : 14s5p5d2f1g contracted to 8s4p3d1f1g pattern {71111111/2111/311/2/1}
 Group   2 Type H   : 5s2p1d contracted to 3s1p1d pattern {311/2/1}

Atom   0P    basis set group =>   1
Atom   1H    basis set group =>   2
Atom   2H    basis set group =>   2
Atom   3H    basis set group =>   2
------------------------------------------------------------------------------
                           ORCA GTO INTEGRAL CALCULATION
                           -- RI-GTO INTEGRALS CHOSEN --
------------------------------------------------------------------------------
------------------------------------------------------------------------------
                   ___                                                        
                  /   \      - P O W E R E D   B Y -                         
                 /     \                                                     
                 |  |  |   _    _      __       _____    __    __             
                 |  |  |  | |  | |    /  \     |  _  \  |  |  /  |          
                  \  \/   | |  | |   /    \    | | | |  |  | /  /          
                 / \  \   | |__| |  /  /\  \   | |_| |  |  |/  /          
                |  |  |   |  __  | /  /__\  \  |    /   |      \           
                |  |  |   | |  | | |   __   |  |    \   |  |\   \          
                \     /   | |  | | |  |  |  |  | |\  \  |  | \   \       
                 \___/    |_|  |_| |__|  |__|  |_| \__\ |__|  \__/        
                                                                              
                      - O R C A' S   B I G   F R I E N D -                    
                                      &                                       
                       - I N T E G R A L  F E E D E R -                       
                                                                              
 v1 FN, 2020, v2 2021                                                         
------------------------------------------------------------------------------


Reading SHARK input file ph3+.SHARKINP.tmp ... ok
----------------------
SHARK INTEGRAL PACKAGE
----------------------

Number of atoms                             ...      4
Number of basis functions                   ...     55
Number of shells                            ...     25
Maximum angular momentum                    ...      3
Integral batch strategy                     ... SHARK/LIBINT Hybrid
RI-J (if used) integral strategy            ... SPLIT-RIJ (Revised 2003 algorithm where possible)
Printlevel                                  ...      1
Contraction scheme used                     ... SEGMENTED contraction
Coulomb Range Separation                    ... NOT USED
Exchange Range Separation                   ... NOT USED
Finite Nucleus Model                        ... NOT USED
Auxiliary Coulomb fitting basis             ... AVAILABLE
   # of basis functions in Aux-J            ...     84
   # of shells in Aux-J                     ...     32
   Maximum angular momentum in Aux-J        ...      4
Auxiliary J/K fitting basis                 ... NOT available
Auxiliary Correlation fitting basis         ... NOT available
Auxiliary 'external' fitting basis          ... NOT available
Integral threshold                          ...     2.500000e-11
Primitive cut-off                           ...     2.500000e-12
Primitive pair pre-selection threshold      ...     2.500000e-12

Calculating pre-screening integrals         ... done (  0.0 sec) Dimension = 25
Organizing shell pair data                  ... done (  0.0 sec)
Shell pair information
Total number of shell pairs                 ...       325
Shell pairs after pre-screening             ...       325
Total number of primitive shell pairs       ...      1080
Primitive shell pairs kept                  ...       993
          la=0 lb=0:    105 shell pairs
          la=1 lb=0:    112 shell pairs
          la=1 lb=1:     36 shell pairs
          la=2 lb=0:     28 shell pairs
          la=2 lb=1:     16 shell pairs
          la=2 lb=2:      3 shell pairs
          la=3 lb=0:     14 shell pairs
          la=3 lb=1:      8 shell pairs
          la=3 lb=2:      2 shell pairs
          la=3 lb=3:      1 shell pairs

Calculating one electron integrals          ... done (  0.0 sec)
Calculating RI/J V-Matrix + Cholesky decomp.... done (  0.0 sec)
Calculating Nuclear repulsion               ... done (  0.0 sec) ENN=     17.799128970677 Eh

SHARK setup successfully completed in   0.2 seconds

Maximum memory used throughout the entire GTOINT-calculation: 15.3 MB
-------------------------------------------------------------------------------
                                 ORCA SCF
-------------------------------------------------------------------------------

------------
SCF SETTINGS
------------
Hamiltonian:
 Density Functional     Method          .... DFT(GTOs)
 Exchange Functional    Exchange        .... M062X
 Correlation Functional Correlation     .... M062X
 Gradients option       PostSCFGGA      .... off
 Hybrid DFT is turned on
   Fraction HF Exchange ScalHFX         ....  0.540000
   Scaling of DF-GGA-X  ScalDFX         ....  0.460000
   Scaling of DF-GGA-C  ScalDFC         ....  1.000000
   Scaling of DF-LDA-C  ScalLDAC        ....  1.000000
   Perturbative correction              ....  0.000000
   Density functional embedding theory  .... OFF
 RI-approximation to the Coulomb term is turned on
   Number of AuxJ basis functions       .... 84
   RIJ-COSX (HFX calculated with COS-X)).... on


General Settings:
 Integral files         IntName         .... ph3+
 Hartree-Fock type      HFTyp           .... UHF
 Total Charge           Charge          ....    1
 Multiplicity           Mult            ....    2
 Number of Electrons    NEL             ....   17
 Basis Dimension        Dim             ....   55
 Nuclear Repulsion      ENuc            ....     17.7991289707 Eh

Convergence Acceleration:
 DIIS                   CNVDIIS         .... on
   Start iteration      DIISMaxIt       ....    12
   Startup error        DIISStart       ....  0.200000
   # of expansion vecs  DIISMaxEq       ....     5
   Bias factor          DIISBfac        ....   1.050
   Max. coefficient     DIISMaxC        ....  10.000
 Trust-Rad. Augm. Hess. CNVTRAH         .... auto
   Auto Start mean grad. ratio tolernc. ....  1.125000
   Auto Start start iteration           ....    20
   Auto Start num. interpolation iter.  ....    10
   Max. Number of Micro iterations      ....    16
   Max. Number of Macro iterations      .... Maxiter - #DIIS iter
   Number of Davidson start vectors     ....     2
   Converg. threshold I  (grad. norm)   ....   1.000e-05
   Converg. threshold II (energy diff.) ....   1.000e-08
   Grad. Scal. Fac. for Micro threshold ....   0.100
   Minimum threshold for Micro iter.    ....   0.010
   NR start threshold (gradient norm)   ....   0.001
   Initial trust radius                 ....   0.400
   Minimum AH scaling param. (alpha)    ....   1.000
   Maximum AH scaling param. (alpha)    .... 1000.000
   Orbital update algorithm             .... Taylor
   White noise on init. David. guess    .... on
   Maximum white noise                  ....   0.010
   Quad. conv. algorithm                .... NR
 SOSCF                  CNVSOSCF        .... off
 Level Shifting         CNVShift        .... on
   Level shift para.    LevelShift      ....    0.2500
   Turn off err/grad.   ShiftErr        ....    0.0010
 Zerner damping         CNVZerner       .... off
 Static damping         CNVDamp         .... on
   Fraction old density DampFac         ....    0.7000
   Max. Damping (<1)    DampMax         ....    0.9800
   Min. Damping (>=0)   DampMin         ....    0.0000
   Turn off err/grad.   DampErr         ....    0.1000
 Fernandez-Rico         CNVRico         .... off

SCF Procedure:
 Maximum # iterations   MaxIter         ....   125
 SCF integral mode      SCFMode         .... Direct
   Integral package                     .... SHARK and LIBINT hybrid scheme
 Reset frequency        DirectResetFreq ....    20
 Integral Threshold     Thresh          ....  2.500e-11 Eh
 Primitive CutOff       TCut            ....  2.500e-12 Eh

Convergence Tolerance:
 Convergence Check Mode ConvCheckMode   .... Total+1el-Energy
 Convergence forced     ConvForced      .... 0
 Energy Change          TolE            ....  1.000e-08 Eh
 1-El. energy change                    ....  1.000e-05 Eh
 DIIS Error             TolErr          ....  5.000e-07


Diagonalization of the overlap matrix:
Smallest eigenvalue                        ... 1.501e-02
Time for diagonalization                   ...    0.025 sec
Threshold for overlap eigenvalues          ... 1.000e-08
Number of eigenvalues below threshold      ... 0
Time for construction of square roots      ...    0.009 sec
Total time needed                          ...    0.034 sec

Time for model grid setup =    0.042 sec

------------------------------
INITIAL GUESS: MODEL POTENTIAL
------------------------------
Loading Hartree-Fock densities                     ... done
Calculating cut-offs                               ... done
Initializing the effective Hamiltonian             ... done
Setting up the integral package (SHARK)            ... done
Starting the Coulomb interaction                   ... done (   0.0 sec)
Reading the grid                                   ... done
Mapping shells                                     ... done
Starting the XC term evaluation                    ... done (   0.0 sec)
  promolecular density results
     # of electrons  =     17.998253780
     EX              =    -23.384556181
     EC              =     -0.644016272
     EX+EC           =    -24.028572453
Transforming the Hamiltonian                       ... done (   0.0 sec)
Diagonalizing the Hamiltonian                      ... done (   0.0 sec)
Back transforming the eigenvectors                 ... done (   0.0 sec)
Now organizing SCF variables                       ... done
                      ------------------
                      INITIAL GUESS DONE (   0.1 sec)
                      ------------------
-------------------
DFT GRID GENERATION
-------------------

General Integration Accuracy     IntAcc      ... 4.388
Radial Grid Type                 RadialGrid  ... OptM3 with GC (2021)
Angular Grid (max. ang.)         AngularGrid ... 4 (Lebedev-302)
Angular grid pruning method      GridPruning ... 4 (adaptive)
Weight generation scheme         WeightScheme... Becke
Basis function cutoff            BFCut       ... 1.0000e-11
Integration weight cutoff        WCut        ... 1.0000e-14
Angular grids for H and He will be reduced by one unit
Partially contracted basis set               ... off
Rotationally invariant grid construction     ... off

Total number of grid points                  ...    17279
Total number of batches                      ...      273
Average number of points per batch           ...       63
Average number of grid points per atom       ...     4320
Time for grid setup =    0.167 sec

--------------------
COSX GRID GENERATION
--------------------

GRIDX 1
-------
General Integration Accuracy     IntAcc      ... 3.816
Radial Grid Type                 RadialGrid  ... OptM3 with GC (2021)
Angular Grid (max. ang.)         AngularGrid ... 1 (Lebedev-50)
Angular grid pruning method      GridPruning ... 4 (adaptive)
Weight generation scheme         WeightScheme... Becke
Basis function cutoff            BFCut       ... 1.0000e-11
Integration weight cutoff        WCut        ... 1.0000e-14
Angular grids for H and He will be reduced by one unit
Partially contracted basis set               ... on
Rotationally invariant grid construction     ... off

Total number of grid points                  ...     2174
Total number of batches                      ...       35
Average number of points per batch           ...       62
Average number of grid points per atom       ...      544
UseSFitting                                  ... on

GRIDX 2
-------
General Integration Accuracy     IntAcc      ... 4.020
Radial Grid Type                 RadialGrid  ... OptM3 with GC (2021)
Angular Grid (max. ang.)         AngularGrid ... 2 (Lebedev-110)
Angular grid pruning method      GridPruning ... 4 (adaptive)
Weight generation scheme         WeightScheme... Becke
Basis function cutoff            BFCut       ... 1.0000e-11
Integration weight cutoff        WCut        ... 1.0000e-14
Angular grids for H and He will be reduced by one unit
Partially contracted basis set               ... on
Rotationally invariant grid construction     ... off

Total number of grid points                  ...     4407
Total number of batches                      ...       71
Average number of points per batch           ...       62
Average number of grid points per atom       ...     1102
UseSFitting                                  ... on

GRIDX 3
-------
General Integration Accuracy     IntAcc      ... 4.338
Radial Grid Type                 RadialGrid  ... OptM3 with GC (2021)
Angular Grid (max. ang.)         AngularGrid ... 3 (Lebedev-194)
Angular grid pruning method      GridPruning ... 4 (adaptive)
Weight generation scheme         WeightScheme... Becke
Basis function cutoff            BFCut       ... 1.0000e-11
Integration weight cutoff        WCut        ... 1.0000e-14
Angular grids for H and He will be reduced by one unit
Partially contracted basis set               ... on
Rotationally invariant grid construction     ... off

Total number of grid points                  ...    10340
Total number of batches                      ...      164
Average number of points per batch           ...       63
Average number of grid points per atom       ...     2585
UseSFitting                                  ... on

Time for X-Grid setup             =    0.171 sec

--------------
SCF ITERATIONS
--------------
ITER       Energy         Delta-E        Max-DP      RMS-DP      [F,P]     Damp
               ***  Starting incremental Fock matrix formation  ***
  0   -342.7490760011   0.000000000000 0.01858109  0.00057480  0.0671592 0.7000
  1   -342.7535845096  -0.004508508547 0.01390122  0.00049074  0.0433857 0.7000
                               ***Turning on DIIS***
  2   -342.7565791453  -0.002994635720 0.03635358  0.00116175  0.0275099 0.0000
  3   -342.7629638632  -0.006384717863 0.01765451  0.00033793  0.0095335 0.0000
  4   -342.7634011441  -0.000437280925 0.00743125  0.00014290  0.0029626 0.0000
  5   -342.7634925953  -0.000091451192 0.00262310  0.00006242  0.0015097 0.0000
  6   -342.7635146496  -0.000022054243 0.00182394  0.00004933  0.0007929 0.0000
               *** Restarting incremental Fock matrix formation ***
                                   *** Resetting DIIS ***
  7   -342.7635128085   0.000001841039 0.00016278  0.00000599  0.0001334 0.0000
  8   -342.7635130153  -0.000000206752 0.00005777  0.00000299  0.0000645 0.0000
  9   -342.7635130616  -0.000000046349 0.00003094  0.00000085  0.0000119 0.0000
 10   -342.7635130651  -0.000000003450 0.00000913  0.00000026  0.0000026 0.0000
                 **** Energy Check signals convergence ****

               *****************************************************
               *                     SUCCESS                       *
               *           SCF CONVERGED AFTER  11 CYCLES          *
               *****************************************************

Old exchange energy                            =    -12.661591371 Eh
New exchange energy                            =    -12.661589969 Eh
Exchange energy change after final integration =      0.000001403 Eh
Total energy after final integration           =   -342.763511662 Eh
Final COS-X integration done in                =     0.672 sec

----------------
TOTAL SCF ENERGY
----------------

Total Energy       :         -342.76351166 Eh           -9327.06933 eV

Components:
Nuclear Repulsion  :           17.79912897 Eh             484.33892 eV
Electronic Energy  :         -360.56264063 Eh           -9811.40825 eV
One Electron Energy:         -503.14175034 Eh          -13691.18307 eV
Two Electron Energy:          142.57910971 Eh            3879.77482 eV
Max COSX asymmetry :            0.00000151 Eh               0.00004 eV

Virial components:
Potential Energy   :         -684.98884088 Eh          -18639.49397 eV
Kinetic Energy     :          342.22532922 Eh            9312.42464 eV
Virial Ratio       :            2.00157260


DFT components:
N(Alpha)           :        9.000001227985 electrons
N(Beta)            :        8.000000961074 electrons
N(Total)           :       17.000002189059 electrons
E(XC)              :      -11.388025356506 Eh       
DFET-embed. en.    :        0.000000000000 Eh       

---------------
SCF CONVERGENCE
---------------

  Last Energy change         ...    5.5155e-10  Tolerance :   1.0000e-08
  Last MAX-Density change    ...    0.0000e+00  Tolerance :   1.0000e-07
  Last RMS-Density change    ...    0.0000e+00  Tolerance :   5.0000e-09
  Last DIIS Error            ...    4.9730e-07  Tolerance :   5.0000e-07

             **** THE GBW FILE WAS UPDATED (ph3+.gbw) ****
             **** DENSITY ph3+.scfp WAS UPDATED ****
             **** ENERGY FILE WAS UPDATED (ph3+.en.tmp) ****
----------------------
UHF SPIN CONTAMINATION
----------------------

Warning: in a DFT calculation there is little theoretical justification to 
         calculate <S**2> as in Hartree-Fock theory. We will do it anyways
         but you should keep in mind that the values have only limited relevance

Expectation value of <S**2>     :     0.753635
Ideal value S*(S+1) for S=0.5   :     0.750000
Deviation                       :     0.003635

             **** THE GBW FILE WAS UPDATED (ph3+.gbw) ****
             **** DENSITY ph3+.scfp WAS UPDATED ****
----------------
ORBITAL ENERGIES
----------------
                 SPIN UP ORBITALS
  NO   OCC          E(Eh)            E(eV) 
   0   1.0000     -78.381731     -2132.8753 
   1   1.0000      -7.196074      -195.8151 
   2   1.0000      -5.320985      -144.7914 
   3   1.0000      -5.309948      -144.4910 
   4   1.0000      -5.309931      -144.4906 
   5   1.0000      -1.050875       -28.5958 
   6   1.0000      -0.774902       -21.0862 
   7   1.0000      -0.774778       -21.0828 
   8   1.0000      -0.624373       -16.9901 
   9   0.0000      -0.192926        -5.2498 
  10   0.0000      -0.190517        -5.1842 
  11   0.0000      -0.190442        -5.1822 
  12   0.0000      -0.046975        -1.2783 
  13   0.0000      -0.011476        -0.3123 
  14   0.0000      -0.011459        -0.3118 
  15   0.0000      -0.000766        -0.0208 
  16   0.0000      -0.000695        -0.0189 
  17   0.0000       0.052144         1.4189 
  18   0.0000       0.151806         4.1308 
  19   0.0000       0.151841         4.1318 
  20   0.0000       0.206300         5.6137 
  21   0.0000       0.286977         7.8090 
  22   0.0000       0.401505        10.9255 
  23   0.0000       0.401728        10.9316 
  24   0.0000       0.835841        22.7444 
  25   0.0000       0.900029        24.4910 
  26   0.0000       0.900328        24.4992 
  27   0.0000       0.918029        24.9808 
  28   0.0000       0.930693        25.3254 
  29   0.0000       0.930798        25.3283 
  30   0.0000       0.953427        25.9441 
  31   0.0000       0.953592        25.9486 
  32   0.0000       0.958081        26.0707 
  33   0.0000       1.138563        30.9819 
  34   0.0000       1.138723        30.9862 
  35   0.0000       1.139744        31.0140 
  36   0.0000       1.212776        33.0013 
  37   0.0000       1.352621        36.8067 
  38   0.0000       1.352685        36.8084 
  39   0.0000       1.623627        44.1811 
  40   0.0000       1.623787        44.1855 
  41   0.0000       1.633590        44.4522 
  42   0.0000       1.798369        48.9361 
  43   0.0000       1.798553        48.9411 
  44   0.0000       1.937587        52.7244 
  45   0.0000       2.155703        58.6597 
  46   0.0000       2.155751        58.6610 
  47   0.0000       2.216733        60.3204 
  48   0.0000       2.381961        64.8164 
  49   0.0000       2.589734        70.4702 
  50   0.0000       2.589936        70.4757 
  51   0.0000       6.940653       188.8648 
  52   0.0000       7.070521       192.3987 
  53   0.0000       7.071059       192.4133 
  54   0.0000      14.019834       381.4991 

                 SPIN DOWN ORBITALS
  NO   OCC          E(Eh)            E(eV) 
   0   1.0000     -78.373121     -2132.6411 
   1   1.0000      -7.192058      -195.7058 
   2   1.0000      -5.306794      -144.4052 
   3   1.0000      -5.306785      -144.4050 
   4   1.0000      -5.299732      -144.2130 
   5   1.0000      -1.009897       -27.4807 
   6   1.0000      -0.765814       -20.8389 
   7   1.0000      -0.765620       -20.8336 
   8   0.0000      -0.388829       -10.5806 
   9   0.0000      -0.180053        -4.8995 
  10   0.0000      -0.178439        -4.8556 
  11   0.0000      -0.178238        -4.8501 
  12   0.0000      -0.055328        -1.5056 
  13   0.0000      -0.023165        -0.6304 
  14   0.0000      -0.023101        -0.6286 
  15   0.0000       0.006950         0.1891 
  16   0.0000       0.017571         0.4781 
  17   0.0000       0.017730         0.4825 
  18   0.0000       0.150468         4.0945 
  19   0.0000       0.150649         4.0994 
  20   0.0000       0.197913         5.3855 
  21   0.0000       0.291524         7.9328 
  22   0.0000       0.401589        10.9278 
  23   0.0000       0.402434        10.9508 
  24   0.0000       0.856963        23.3191 
  25   0.0000       0.918496        24.9935 
  26   0.0000       0.922090        25.0913 
  27   0.0000       0.923769        25.1370 
  28   0.0000       0.950337        25.8600 
  29   0.0000       0.950633        25.8680 
  30   0.0000       0.972899        26.4739 
  31   0.0000       0.973197        26.4820 
  32   0.0000       0.988155        26.8891 
  33   0.0000       1.150541        31.3078 
  34   0.0000       1.150698        31.3121 
  35   0.0000       1.169597        31.8263 
  36   0.0000       1.235668        33.6242 
  37   0.0000       1.378032        37.4982 
  38   0.0000       1.378183        37.5023 
  39   0.0000       1.633133        44.4398 
  40   0.0000       1.634050        44.4648 
  41   0.0000       1.644587        44.7515 
  42   0.0000       1.814396        49.3722 
  43   0.0000       1.814731        49.3813 
  44   0.0000       1.954498        53.1846 
  45   0.0000       2.177341        59.2485 
  46   0.0000       2.182406        59.3863 
  47   0.0000       2.232799        60.7575 
  48   0.0000       2.413379        65.6714 
  49   0.0000       2.599777        70.7435 
  50   0.0000       2.600934        70.7750 
  51   0.0000       6.995611       190.3603 
  52   0.0000       7.100113       193.2039 
  53   0.0000       7.101240       193.2346 
  54   0.0000      14.034479       381.8976 

                    ********************************
                    * MULLIKEN POPULATION ANALYSIS *
                    ********************************

--------------------------------------------
MULLIKEN ATOMIC CHARGES AND SPIN POPULATIONS
--------------------------------------------
   0 P :    0.348845    0.996195
   1 H :    0.217013    0.001425
   2 H :    0.217032    0.001271
   3 H :    0.217111    0.001109
Sum of atomic charges         :    1.0000000
Sum of atomic spin populations:    1.0000000

-----------------------------------------------------
MULLIKEN REDUCED ORBITAL CHARGES AND SPIN POPULATIONS
-----------------------------------------------------
CHARGE
  0 P s       :     5.568860  s :     5.568860
      pz      :     2.901020  p :     8.946484
      px      :     3.022944
      py      :     3.022520
      dz2     :     0.011519  d :     0.128910
      dxz     :     0.015614
      dyz     :     0.015621
      dx2y2   :     0.043046
      dxy     :     0.043110
      f0      :     0.000750  f :     0.006901
      f+1     :     0.000940
      f-1     :     0.000937
      f+2     :     0.000888
      f-2     :     0.000910
      f+3     :     0.000043
      f-3     :     0.002433
  1 H s       :     0.766229  s :     0.766229
      pz      :     0.002806  p :     0.016758
      px      :     0.009538
      py      :     0.004414
  2 H s       :     0.766226  s :     0.766226
      pz      :     0.002797  p :     0.016742
      px      :     0.000975
      py      :     0.012970
  3 H s       :     0.766176  s :     0.766176
      pz      :     0.002790  p :     0.016713
      px      :     0.010418
      py      :     0.003505

SPIN
  0 P s       :     0.098953  s :     0.098953
      pz      :     0.870844  p :     0.912020
      px      :     0.020530
      py      :     0.020646
      dz2     :    -0.002094  d :    -0.013394
      dxz     :    -0.001606
      dyz     :    -0.001594
      dx2y2   :    -0.003977
      dxy     :    -0.004123
      f0      :    -0.000150  f :    -0.001383
      f+1     :    -0.000411
      f-1     :    -0.000406
      f+2     :     0.000015
      f-2     :    -0.000004
      f+3     :    -0.000007
      f-3     :    -0.000421
  1 H s       :    -0.000241  s :    -0.000241
      pz      :     0.001352  p :     0.001666
      px      :     0.000185
      py      :     0.000130
  2 H s       :    -0.000407  s :    -0.000407
      pz      :     0.001352  p :     0.001678
      px      :     0.000033
      py      :     0.000293
  3 H s       :    -0.000584  s :    -0.000584
      pz      :     0.001350  p :     0.001693
      px      :     0.000241
      py      :     0.000102


                     *******************************
                     * LOEWDIN POPULATION ANALYSIS *
                     *******************************

-------------------------------------------
LOEWDIN ATOMIC CHARGES AND SPIN POPULATIONS
-------------------------------------------
   0 P :    0.788625    0.991004
   1 H :    0.070540    0.003156
   2 H :    0.070475    0.003040
   3 H :    0.070361    0.002800

----------------------------------------------------
LOEWDIN REDUCED ORBITAL CHARGES AND SPIN POPULATIONS
----------------------------------------------------
CHARGE
  0 P s       :     5.129232  s :     5.129232
      pz      :     2.895746  p :     8.903681
      px      :     3.003993
      py      :     3.003941
      dz2     :     0.010969  d :     0.164718
      dxz     :     0.019088
      dyz     :     0.019113
      dx2y2   :     0.057785
      dxy     :     0.057763
      f0      :     0.000718  f :     0.013745
      f+1     :     0.001785
      f-1     :     0.001788
      f+2     :     0.002885
      f-2     :     0.002902
      f+3     :     0.000064
      f-3     :     0.003602
  1 H s       :     0.876685  s :     0.876685
      pz      :     0.009430  p :     0.052776
      px      :     0.029350
      py      :     0.013996
  2 H s       :     0.876762  s :     0.876762
      pz      :     0.009397  p :     0.052763
      px      :     0.003560
      py      :     0.039806
  3 H s       :     0.876898  s :     0.876898
      pz      :     0.009377  p :     0.052742
      px      :     0.032150
      py      :     0.011215

SPIN
  0 P s       :     0.085924  s :     0.085924
      pz      :     0.877543  p :     0.913368
      px      :     0.017973
      py      :     0.017853
      dz2     :     0.002840  d :    -0.009011
      dxz     :    -0.001666
      dyz     :    -0.001675
      dx2y2   :    -0.004210
      dxy     :    -0.004300
      f0      :     0.000104  f :     0.000722
      f+1     :    -0.000351
      f-1     :    -0.000350
      f+2     :    -0.000045
      f-2     :    -0.000056
      f+3     :     0.000025
      f-3     :     0.001396
  1 H s       :    -0.003616  s :    -0.003616
      pz      :     0.005494  p :     0.006772
      px      :     0.000814
      py      :     0.000464
  2 H s       :    -0.003758  s :    -0.003758
      pz      :     0.005496  p :     0.006798
      px      :     0.000175
      py      :     0.001127
  3 H s       :    -0.004024  s :    -0.004024
      pz      :     0.005498  p :     0.006824
      px      :     0.000931
      py      :     0.000395


                      *****************************
                      * MAYER POPULATION ANALYSIS *
                      *****************************

  NA   - Mulliken gross atomic population
  ZA   - Total nuclear charge
  QA   - Mulliken gross atomic charge
  VA   - Mayer's total valence
  BVA  - Mayer's bonded valence
  FA   - Mayer's free valence

  ATOM       NA         ZA         QA         VA         BVA        FA
  0 P     14.6512    15.0000     0.3488     3.6462     2.7414     0.9048
  1 H      0.7830     1.0000     0.2170     0.9350     0.9349     0.0001
  2 H      0.7830     1.0000     0.2170     0.9351     0.9349     0.0001
  3 H      0.7829     1.0000     0.2171     0.9350     0.9349     0.0001

  Mayer bond orders larger than 0.100000
B(  0-P ,  1-H ) :   0.9138 B(  0-P ,  2-H ) :   0.9138 B(  0-P ,  3-H ) :   0.9138 


-------
TIMINGS
-------

Total SCF time: 0 days 0 hours 0 min 10 sec 

Total time                  ....      10.071 sec
Sum of individual times     ....       9.740 sec  ( 96.7%)

Fock matrix formation       ....       9.120 sec  ( 90.6%)
  Split-RI-J                ....       0.555 sec  (  6.1% of F)
  Chain of spheres X        ....       4.072 sec  ( 44.6% of F)
  XC integration            ....       4.440 sec  ( 48.7% of F)
    Basis function eval.    ....       0.589 sec  ( 13.3% of XC)
    Density eval.           ....       1.362 sec  ( 30.7% of XC)
    XC-Functional eval.     ....       1.031 sec  ( 23.2% of XC)
    XC-Potential eval.      ....       1.131 sec  ( 25.5% of XC)
Diagonalization             ....       0.053 sec  (  0.5%)
Density matrix formation    ....       0.001 sec  (  0.0%)
Population analysis         ....       0.028 sec  (  0.3%)
Initial guess               ....       0.071 sec  (  0.7%)
Orbital Transformation      ....       0.000 sec  (  0.0%)
Orbital Orthonormalization  ....       0.000 sec  (  0.0%)
DIIS solution               ....       0.087 sec  (  0.9%)
Grid generation             ....       0.380 sec  (  3.8%)

Maximum memory used throughout the entire SCF-calculation: 62.0 MB

-------------------------   --------------------
FINAL SINGLE POINT ENERGY      -342.763511661856
-------------------------   --------------------

------------------------------------------------------------------------------
                         ORCA SCF GRADIENT CALCULATION
------------------------------------------------------------------------------

 ... reading COSX grid (gridx3)
Gradient of the Kohn-Sham DFT energy:
Kohn-Sham wavefunction type      ... UKS
Hartree-Fock exchange scaling    ...    0.540
Number of operators              ...    2
Number of atoms                  ...    4
Basis set dimensions             ...   55
Integral neglect threshold       ... 2.5e-11
Integral primitive cutoff        ... 2.5e-12
SHARK Integral package           ... ON

Nuc. rep. gradient       (SHARK) ... done (  0.0 sec)
HCore & Overlap gradient (SHARK) ... done (  0.0 sec)
RI-J gradient            (SHARK) ... done (  0.2 sec)
COSX-gradient                    ... done (  1.0 sec)
Exchange-correlation gradient    ... done

------------------
CARTESIAN GRADIENT
------------------

   1   P   :   -0.000098741    0.000233508   -0.003773478
   2   H   :   -0.001988992   -0.001456632    0.001308935
   3   H   :    0.000115015    0.002419365    0.001262531
   4   H   :    0.002028229   -0.001167345    0.001142419

Difference to translation invariance:
           :    0.0000555118    0.0000288955   -0.0000595935

Difference to rotation invariance:
           :   -0.0002042091   -0.0005978078    0.0003675951

Norm of the cartesian gradient     ...    0.0060279896
RMS gradient                       ...    0.0017401307
MAX gradient                       ...    0.0037734782

-------
TIMINGS
-------

Total SCF gradient time            ...        2.200 sec

One electron gradient       ....       0.022 sec  (  1.0%)
RI-J Coulomb gradient       ....       0.196 sec  (  8.9%)
COSX gradient               ....       0.953 sec  ( 43.3%)
XC gradient                 ....       0.777 sec  ( 35.3%)

Maximum memory used throughout the entire SCFGRAD-calculation: 36.7 MB
------------------------------------------------------------------------------
                         ORCA GEOMETRY RELAXATION STEP
------------------------------------------------------------------------------

Reading the OPT-File                    .... done
Getting information on internals        .... done
Copying old internal coords+grads       .... done
Making the new internal coordinates     .... (new redundants).... done
Validating the new internal coordinates .... (new redundants).... done
Calculating the B-matrix                .... done
Calculating the G,G- and P matrices     .... done
Transforming gradient to internals      .... done
Projecting the internal gradient        .... done
Number of atoms                         ....   4
Number of internal coordinates          ....   7
Current Energy                          ....  -342.763511662 Eh
Current gradient norm                   ....     0.006027990 Eh/bohr
Maximum allowed component of the step   ....  0.300
Current trust radius                    ....  0.300
Evaluating the initial hessian          ....  (Almloef) done
Projecting the Hessian                  .... done
Forming the augmented Hessian           .... done
Diagonalizing the augmented Hessian     .... done
Last element of RFO vector              ....  0.999799149
Lowest eigenvalues of augmented Hessian:
 -0.000077791  0.088095938  0.353380556  0.353382295  0.400164609
Length of the computed step             ....  0.020045515
The final length of the internal step   ....  0.020045515
Converting the step to cartesian space:
 Initial RMS(Int)=    0.0075764924
Transforming coordinates:
 Iter   0:  RMS(Cart)=    0.0041426874 RMS(Int)=    0.0075789586
 Iter   1:  RMS(Cart)=    0.0000243184 RMS(Int)=    0.0000302223
 Iter   2:  RMS(Cart)=    0.0000000941 RMS(Int)=    0.0000001431
done
Storing new coordinates                 .... done

                                .--------------------.
          ----------------------|Geometry convergence|-------------------------
          Item                value                   Tolerance       Converged
          ---------------------------------------------------------------------
          RMS gradient        0.0018421383            0.0001000000      NO
          MAX gradient        0.0027275371            0.0003000000      NO
          RMS step            0.0075764924            0.0020000000      NO
          MAX step            0.0143529252            0.0040000000      NO
          ........................................................
          Max(Bonds)      0.0036      Max(Angles)    0.30
          Max(Dihed)        0.00      Max(Improp)    0.82
          ---------------------------------------------------------------------

The optimization has not yet converged - more geometry cycles are needed


    ---------------------------------------------------------------------------
                         Redundant Internal Coordinates
                            (Angstroem and degrees)

        Definition                    Value    dE/dq     Step     New-Value
    ----------------------------------------------------------------------------
     1. B(H   1,P   0)                1.3913 -0.002728  0.0036    1.3949   
     2. B(H   2,P   0)                1.3913 -0.002645  0.0035    1.3948   
     3. B(H   3,P   0)                1.3913 -0.002577  0.0034    1.3947   
     4. A(H   1,P   0,H   3)          113.23  0.000533   -0.30    112.93   
     5. A(H   2,P   0,H   3)          113.22  0.000889   -0.28    112.94   
     6. A(H   1,P   0,H   2)          113.23 -0.000055   -0.20    113.02   
     7. I(H   1,H   3,H   2,P   0)    -44.23  0.001265   -0.82    -45.05   
    ----------------------------------------------------------------------------

         *************************************************************
         *                GEOMETRY OPTIMIZATION CYCLE   2            *
         *************************************************************
---------------------------------
CARTESIAN COORDINATES (ANGSTROEM)
---------------------------------
  P     -1.489787   -0.309127    0.283158
  H     -0.358761    0.413708   -0.096326
  H     -1.431655   -1.650674   -0.094047
  H     -2.681627    0.310023   -0.092785

----------------------------
CARTESIAN COORDINATES (A.U.)
----------------------------
  NO LB      ZA    FRAG     MASS         X           Y           Z
   0 P    15.0000    0    30.974   -2.815289   -0.584164    0.535091
   1 H     1.0000    0     1.008   -0.677960    0.781794   -0.182029
   2 H     1.0000    0     1.008   -2.705437   -3.119321   -0.177724
   3 H     1.0000    0     1.008   -5.067540    0.585858   -0.175338

--------------------------------
INTERNAL COORDINATES (ANGSTROEM)
--------------------------------
 P      0   0   0     0.000000000000     0.00000000     0.00000000
 H      1   0   0     1.394889503901     0.00000000     0.00000000
 H      1   2   0     1.394780433372   113.02021498     0.00000000
 H      1   2   3     1.394690323745   112.92488281   230.25013824

---------------------------
INTERNAL COORDINATES (A.U.)
---------------------------
 P      0   0   0     0.000000000000     0.00000000     0.00000000
 H      1   0   0     2.635959149455     0.00000000     0.00000000
 H      1   2   0     2.635753036025   113.02021498     0.00000000
 H      1   2   3     2.635582753507   112.92488281   230.25013824

------------------------------------------------------------------------------
                   ___                                                        
                  /   \      - P O W E R E D   B Y -                         
                 /     \                                                     
                 |  |  |   _    _      __       _____    __    __             
                 |  |  |  | |  | |    /  \     |  _  \  |  |  /  |          
                  \  \/   | |  | |   /    \    | | | |  |  | /  /          
                 / \  \   | |__| |  /  /\  \   | |_| |  |  |/  /          
                |  |  |   |  __  | /  /__\  \  |    /   |      \           
                |  |  |   | |  | | |   __   |  |    \   |  |\   \          
                \     /   | |  | | |  |  |  |  | |\  \  |  | \   \       
                 \___/    |_|  |_| |__|  |__|  |_| \__\ |__|  \__/        
                                                                              
                      - O R C A' S   B I G   F R I E N D -                    
                                      &                                       
                       - I N T E G R A L  F E E D E R -                       
                                                                              
 v1 FN, 2020, v2 2021                                                         
------------------------------------------------------------------------------


Reading SHARK input file ph3+.SHARKINP.tmp ... ok
----------------------
SHARK INTEGRAL PACKAGE
----------------------

Number of atoms                             ...      4
Number of basis functions                   ...     55
Number of shells                            ...     25
Maximum angular momentum                    ...      3
Integral batch strategy                     ... SHARK/LIBINT Hybrid
RI-J (if used) integral strategy            ... SPLIT-RIJ (Revised 2003 algorithm where possible)
Printlevel                                  ...      1
Contraction scheme used                     ... SEGMENTED contraction
Coulomb Range Separation                    ... NOT USED
Exchange Range Separation                   ... NOT USED
Finite Nucleus Model                        ... NOT USED
Auxiliary Coulomb fitting basis             ... AVAILABLE
   # of basis functions in Aux-J            ...     84
   # of shells in Aux-J                     ...     32
   Maximum angular momentum in Aux-J        ...      4
Auxiliary J/K fitting basis                 ... NOT available
Auxiliary Correlation fitting basis         ... NOT available
Auxiliary 'external' fitting basis          ... NOT available
Integral threshold                          ...     2.500000e-11
Primitive cut-off                           ...     2.500000e-12
Primitive pair pre-selection threshold      ...     2.500000e-12

Calculating pre-screening integrals         ... done (  0.1 sec) Dimension = 25
Organizing shell pair data                  ... done (  0.0 sec)
Shell pair information
Total number of shell pairs                 ...       325
Shell pairs after pre-screening             ...       325
Total number of primitive shell pairs       ...      1080
Primitive shell pairs kept                  ...       993
          la=0 lb=0:    105 shell pairs
          la=1 lb=0:    112 shell pairs
          la=1 lb=1:     36 shell pairs
          la=2 lb=0:     28 shell pairs
          la=2 lb=1:     16 shell pairs
          la=2 lb=2:      3 shell pairs
          la=3 lb=0:     14 shell pairs
          la=3 lb=1:      8 shell pairs
          la=3 lb=2:      2 shell pairs
          la=3 lb=3:      1 shell pairs

Calculating one electron integrals          ... done (  0.0 sec)
Calculating RI/J V-Matrix + Cholesky decomp.... done (  0.0 sec)
Calculating Nuclear repulsion               ... done (  0.0 sec) ENN=     17.755459622706 Eh

SHARK setup successfully completed in   0.2 seconds

Maximum memory used throughout the entire GTOINT-calculation: 15.3 MB

Diagonalization of the overlap matrix:
Smallest eigenvalue                        ... 1.514e-02
Time for diagonalization                   ...    0.002 sec
Threshold for overlap eigenvalues          ... 1.000e-08
Number of eigenvalues below threshold      ... 0
Time for construction of square roots      ...    0.002 sec
Total time needed                          ...    0.004 sec

-------------------
DFT GRID GENERATION
-------------------

General Integration Accuracy     IntAcc      ... 4.388
Radial Grid Type                 RadialGrid  ... OptM3 with GC (2021)
Angular Grid (max. ang.)         AngularGrid ... 4 (Lebedev-302)
Angular grid pruning method      GridPruning ... 4 (adaptive)
Weight generation scheme         WeightScheme... Becke
Basis function cutoff            BFCut       ... 1.0000e-11
Integration weight cutoff        WCut        ... 1.0000e-14
Angular grids for H and He will be reduced by one unit
Partially contracted basis set               ... off
Rotationally invariant grid construction     ... off

Total number of grid points                  ...    17282
Total number of batches                      ...      272
Average number of points per batch           ...       63
Average number of grid points per atom       ...     4321
Time for grid setup =    0.141 sec

--------------------
COSX GRID GENERATION
--------------------

GRIDX 1
-------
General Integration Accuracy     IntAcc      ... 3.816
Radial Grid Type                 RadialGrid  ... OptM3 with GC (2021)
Angular Grid (max. ang.)         AngularGrid ... 1 (Lebedev-50)
Angular grid pruning method      GridPruning ... 4 (adaptive)
Weight generation scheme         WeightScheme... Becke
Basis function cutoff            BFCut       ... 1.0000e-11
Integration weight cutoff        WCut        ... 1.0000e-14
Angular grids for H and He will be reduced by one unit
Partially contracted basis set               ... on
Rotationally invariant grid construction     ... off

Total number of grid points                  ...     2174
Total number of batches                      ...       36
Average number of points per batch           ...       60
Average number of grid points per atom       ...      544
UseSFitting                                  ... on

GRIDX 2
-------
General Integration Accuracy     IntAcc      ... 4.020
Radial Grid Type                 RadialGrid  ... OptM3 with GC (2021)
Angular Grid (max. ang.)         AngularGrid ... 2 (Lebedev-110)
Angular grid pruning method      GridPruning ... 4 (adaptive)
Weight generation scheme         WeightScheme... Becke
Basis function cutoff            BFCut       ... 1.0000e-11
Integration weight cutoff        WCut        ... 1.0000e-14
Angular grids for H and He will be reduced by one unit
Partially contracted basis set               ... on
Rotationally invariant grid construction     ... off

Total number of grid points                  ...     4408
Total number of batches                      ...       71
Average number of points per batch           ...       62
Average number of grid points per atom       ...     1102
UseSFitting                                  ... on

GRIDX 3
-------
General Integration Accuracy     IntAcc      ... 4.338
Radial Grid Type                 RadialGrid  ... OptM3 with GC (2021)
Angular Grid (max. ang.)         AngularGrid ... 3 (Lebedev-194)
Angular grid pruning method      GridPruning ... 4 (adaptive)
Weight generation scheme         WeightScheme... Becke
Basis function cutoff            BFCut       ... 1.0000e-11
Integration weight cutoff        WCut        ... 1.0000e-14
Angular grids for H and He will be reduced by one unit
Partially contracted basis set               ... on
Rotationally invariant grid construction     ... off

Total number of grid points                  ...    10338
Total number of batches                      ...      163
Average number of points per batch           ...       63
Average number of grid points per atom       ...     2585
UseSFitting                                  ... on

Time for X-Grid setup             =    0.171 sec

--------------
SCF ITERATIONS
--------------
ITER       Energy         Delta-E        Max-DP      RMS-DP      [F,P]     Damp
               ***  Starting incremental Fock matrix formation  ***
  0   -342.7635586393   0.000000000000 0.00017590  0.00000928  0.0013416 0.7000
  1   -342.7635613406  -0.000002701289 0.00017434  0.00000885  0.0009776 0.7000
                               ***Turning on DIIS***
  2   -342.7635634926  -0.000002152030 0.00056348  0.00002625  0.0007077 0.0000
               *** Restarting incremental Fock matrix formation ***
                                   *** Resetting DIIS ***
  3   -342.7635693895  -0.000005896893 0.00032074  0.00000964  0.0001383 0.0000
  4   -342.7635697031  -0.000000313585 0.00008013  0.00000311  0.0000775 0.0000
  5   -342.7635697529  -0.000000049837 0.00004855  0.00000189  0.0000264 0.0000
  6   -342.7635697634  -0.000000010435 0.00000856  0.00000037  0.0000077 0.0000
  7   -342.7635697634  -0.000000000098 0.00000233  0.00000010  0.0000016 0.0000
                 **** Energy Check signals convergence ****

               *****************************************************
               *                     SUCCESS                       *
               *           SCF CONVERGED AFTER   8 CYCLES          *
               *****************************************************

Old exchange energy                            =    -12.659977698 Eh
New exchange energy                            =    -12.659975881 Eh
Exchange energy change after final integration =      0.000001817 Eh
Total energy after final integration           =   -342.763567946 Eh
Final COS-X integration done in                =     0.703 sec
Total Energy       :         -342.76356795 Eh           -9327.07086 eV
  Last Energy change         ...    6.2391e-10  Tolerance :   1.0000e-08
  Last MAX-Density change    ...    0.0000e+00  Tolerance :   1.0000e-07
             **** THE GBW FILE WAS UPDATED (ph3+.gbw) ****
             **** DENSITY ph3+.scfp WAS UPDATED ****
             **** ENERGY FILE WAS UPDATED (ph3+.en.tmp) ****
----------------------
UHF SPIN CONTAMINATION
----------------------

Warning: in a DFT calculation there is little theoretical justification to 
         calculate <S**2> as in Hartree-Fock theory. We will do it anyways
         but you should keep in mind that the values have only limited relevance

Expectation value of <S**2>     :     0.753591
Ideal value S*(S+1) for S=0.5   :     0.750000
Deviation                       :     0.003591

             **** THE GBW FILE WAS UPDATED (ph3+.gbw) ****
             **** DENSITY ph3+.scfp WAS UPDATED ****
Total SCF time: 0 days 0 hours 0 min 7 sec 

Maximum memory used throughout the entire SCF-calculation: 61.9 MB

-------------------------   --------------------
FINAL SINGLE POINT ENERGY      -342.763567945592
-------------------------   --------------------

------------------------------------------------------------------------------
                         ORCA SCF GRADIENT CALCULATION
------------------------------------------------------------------------------

 ... reading COSX grid (gridx3)
Gradient of the Kohn-Sham DFT energy:
Kohn-Sham wavefunction type      ... UKS
Hartree-Fock exchange scaling    ...    0.540
Number of operators              ...    2
Number of atoms                  ...    4
Basis set dimensions             ...   55
Integral neglect threshold       ... 2.5e-11
Integral primitive cutoff        ... 2.5e-12
SHARK Integral package           ... ON

Nuc. rep. gradient       (SHARK) ... done (  0.0 sec)
HCore & Overlap gradient (SHARK) ... done (  0.0 sec)
RI-J gradient            (SHARK) ... done (  0.2 sec)
COSX-gradient                    ... done (  0.9 sec)
Exchange-correlation gradient    ... done

------------------
CARTESIAN GRADIENT
------------------

   1   P   :   -0.000097518    0.000164251   -0.001790575
   2   H   :   -0.000810241   -0.000634348    0.000612941
   3   H   :    0.000128631    0.001025260    0.000622479
   4   H   :    0.000826154   -0.000533997    0.000495585

Difference to translation invariance:
           :    0.0000470249    0.0000211653   -0.0000595707

Difference to rotation invariance:
           :   -0.0002409629   -0.0005023758    0.0003936323

Norm of the cartesian gradient     ...    0.0027102959
RMS gradient                       ...    0.0007823950
MAX gradient                       ...    0.0017905754

-------
TIMINGS
-------

Total SCF gradient time            ...        2.121 sec

One electron gradient       ....       0.028 sec  (  1.3%)
RI-J Coulomb gradient       ....       0.167 sec  (  7.9%)
COSX gradient               ....       0.936 sec  ( 44.1%)
XC gradient                 ....       0.780 sec  ( 36.8%)

Maximum memory used throughout the entire SCFGRAD-calculation: 36.7 MB
------------------------------------------------------------------------------
                         ORCA GEOMETRY RELAXATION STEP
------------------------------------------------------------------------------

Reading the OPT-File                    .... done
Getting information on internals        .... done
Copying old internal coords+grads       .... done
Making the new internal coordinates     .... (new redundants).... done
Validating the new internal coordinates .... (new redundants).... done
Calculating the B-matrix                .... done
Calculating the G,G- and P matrices     .... done
Transforming gradient to internals      .... done
Projecting the internal gradient        .... done
Number of atoms                         ....   4
Number of internal coordinates          ....   7
Current Energy                          ....  -342.763567946 Eh
Current gradient norm                   ....     0.002710296 Eh/bohr
Maximum allowed component of the step   ....  0.300
Current trust radius                    ....  0.300
Updating the Hessian (BFGS)             .... done
Forming the augmented Hessian           .... done
Diagonalizing the augmented Hessian     .... done
Last element of RFO vector              ....  0.999830257
Lowest eigenvalues of augmented Hessian:
 -0.000030872  0.064547792  0.291067112  0.353467414  0.358984568
Length of the computed step             ....  0.018427476
The final length of the internal step   ....  0.018427476
Converting the step to cartesian space:
 Initial RMS(Int)=    0.0069649313
Transforming coordinates:
 Iter   0:  RMS(Cart)=    0.0038409097 RMS(Int)=    0.0069669014
 Iter   1:  RMS(Cart)=    0.0000222272 RMS(Int)=    0.0000276306
 Iter   2:  RMS(Cart)=    0.0000000767 RMS(Int)=    0.0000001207
done
Storing new coordinates                 .... done

                                .--------------------.
          ----------------------|Geometry convergence|-------------------------
          Item                value                   Tolerance       Converged
          ---------------------------------------------------------------------
          Energy change      -0.0000562837            0.0000050000      NO
          RMS gradient        0.0008118688            0.0001000000      NO
          MAX gradient        0.0011619260            0.0003000000      NO
          RMS step            0.0069649313            0.0020000000      NO
          MAX step            0.0139063746            0.0040000000      NO
          ........................................................
          Max(Bonds)      0.0029      Max(Angles)    0.31
          Max(Dihed)        0.00      Max(Improp)    0.80
          ---------------------------------------------------------------------

The optimization has not yet converged - more geometry cycles are needed


    ---------------------------------------------------------------------------
                         Redundant Internal Coordinates
                            (Angstroem and degrees)

        Definition                    Value    dE/dq     Step     New-Value
    ----------------------------------------------------------------------------
     1. B(H   1,P   0)                1.3949 -0.001162  0.0029    1.3978   
     2. B(H   2,P   0)                1.3948 -0.001134  0.0028    1.3976   
     3. B(H   3,P   0)                1.3947 -0.001095  0.0027    1.3974   
     4. A(H   1,P   0,H   3)          112.92  0.000336   -0.31    112.62   
     5. A(H   2,P   0,H   3)          112.94  0.000480   -0.28    112.66   
     6. A(H   1,P   0,H   2)          113.02 -0.000086   -0.18    112.84   
     7. I(H   1,H   3,H   2,P   0)    -45.05  0.000656   -0.80    -45.84   
    ----------------------------------------------------------------------------

         *************************************************************
         *                GEOMETRY OPTIMIZATION CYCLE   3            *
         *************************************************************
---------------------------------
CARTESIAN COORDINATES (ANGSTROEM)
---------------------------------
  P     -1.489488   -0.309405    0.289086
  H     -0.358455    0.414772   -0.098285
  H     -1.432191   -1.651669   -0.095968
  H     -2.681696    0.310232   -0.094832

----------------------------
CARTESIAN COORDINATES (A.U.)
----------------------------
  NO LB      ZA    FRAG     MASS         X           Y           Z
   0 P    15.0000    0    30.974   -2.814724   -0.584691    0.546293
   1 H     1.0000    0     1.008   -0.677382    0.783806   -0.185732
   2 H     1.0000    0     1.008   -2.706448   -3.121203   -0.181354
   3 H     1.0000    0     1.008   -5.067671    0.586254   -0.179207

--------------------------------
INTERNAL COORDINATES (ANGSTROEM)
--------------------------------
 P      0   0   0     0.000000000000     0.00000000     0.00000000
 H      1   0   0     1.397756637665     0.00000000     0.00000000
 H      1   2   0     1.397577502301   112.83411007     0.00000000
 H      1   2   3     1.397391753849   112.61175438   231.09142422

---------------------------
INTERNAL COORDINATES (A.U.)
---------------------------
 P      0   0   0     0.000000000000     0.00000000     0.00000000
 H      1   0   0     2.641377247058     0.00000000     0.00000000
 H      1   2   0     2.641038730278   112.83411007     0.00000000
 H      1   2   3     2.640687716575   112.61175438   231.09142422

------------------------------------------------------------------------------
                   ___                                                        
                  /   \      - P O W E R E D   B Y -                         
                 /     \                                                     
                 |  |  |   _    _      __       _____    __    __             
                 |  |  |  | |  | |    /  \     |  _  \  |  |  /  |          
                  \  \/   | |  | |   /    \    | | | |  |  | /  /          
                 / \  \   | |__| |  /  /\  \   | |_| |  |  |/  /          
                |  |  |   |  __  | /  /__\  \  |    /   |      \           
                |  |  |   | |  | | |   __   |  |    \   |  |\   \          
                \     /   | |  | | |  |  |  |  | |\  \  |  | \   \       
                 \___/    |_|  |_| |__|  |__|  |_| \__\ |__|  \__/        
                                                                              
                      - O R C A' S   B I G   F R I E N D -                    
                                      &                                       
                       - I N T E G R A L  F E E D E R -                       
                                                                              
 v1 FN, 2020, v2 2021                                                         
------------------------------------------------------------------------------


Reading SHARK input file ph3+.SHARKINP.tmp ... ok
----------------------
SHARK INTEGRAL PACKAGE
----------------------

Number of atoms                             ...      4
Number of basis functions                   ...     55
Number of shells                            ...     25
Maximum angular momentum                    ...      3
Integral batch strategy                     ... SHARK/LIBINT Hybrid
RI-J (if used) integral strategy            ... SPLIT-RIJ (Revised 2003 algorithm where possible)
Printlevel                                  ...      1
Contraction scheme used                     ... SEGMENTED contraction
Coulomb Range Separation                    ... NOT USED
Exchange Range Separation                   ... NOT USED
Finite Nucleus Model                        ... NOT USED
Auxiliary Coulomb fitting basis             ... AVAILABLE
   # of basis functions in Aux-J            ...     84
   # of shells in Aux-J                     ...     32
   Maximum angular momentum in Aux-J        ...      4
Auxiliary J/K fitting basis                 ... NOT available
Auxiliary Correlation fitting basis         ... NOT available
Auxiliary 'external' fitting basis          ... NOT available
Integral threshold                          ...     2.500000e-11
Primitive cut-off                           ...     2.500000e-12
Primitive pair pre-selection threshold      ...     2.500000e-12

Calculating pre-screening integrals         ... done (  0.1 sec) Dimension = 25
Organizing shell pair data                  ... done (  0.0 sec)
Shell pair information
Total number of shell pairs                 ...       325
Shell pairs after pre-screening             ...       325
Total number of primitive shell pairs       ...      1080
Primitive shell pairs kept                  ...       990
          la=0 lb=0:    105 shell pairs
          la=1 lb=0:    112 shell pairs
          la=1 lb=1:     36 shell pairs
          la=2 lb=0:     28 shell pairs
          la=2 lb=1:     16 shell pairs
          la=2 lb=2:      3 shell pairs
          la=3 lb=0:     14 shell pairs
          la=3 lb=1:      8 shell pairs
          la=3 lb=2:      2 shell pairs
          la=3 lb=3:      1 shell pairs

Calculating one electron integrals          ... done (  0.0 sec)
Calculating RI/J V-Matrix + Cholesky decomp.... done (  0.0 sec)
Calculating Nuclear repulsion               ... done (  0.0 sec) ENN=     17.721063002640 Eh

SHARK setup successfully completed in   0.2 seconds

Maximum memory used throughout the entire GTOINT-calculation: 15.3 MB

Diagonalization of the overlap matrix:
Smallest eigenvalue                        ... 1.523e-02
Time for diagonalization                   ...    0.003 sec
Threshold for overlap eigenvalues          ... 1.000e-08
Number of eigenvalues below threshold      ... 0
Time for construction of square roots      ...    0.002 sec
Total time needed                          ...    0.005 sec

-------------------
DFT GRID GENERATION
-------------------

General Integration Accuracy     IntAcc      ... 4.388
Radial Grid Type                 RadialGrid  ... OptM3 with GC (2021)
Angular Grid (max. ang.)         AngularGrid ... 4 (Lebedev-302)
Angular grid pruning method      GridPruning ... 4 (adaptive)
Weight generation scheme         WeightScheme... Becke
Basis function cutoff            BFCut       ... 1.0000e-11
Integration weight cutoff        WCut        ... 1.0000e-14
Angular grids for H and He will be reduced by one unit
Partially contracted basis set               ... off
Rotationally invariant grid construction     ... off

Total number of grid points                  ...    17282
Total number of batches                      ...      272
Average number of points per batch           ...       63
Average number of grid points per atom       ...     4321
Time for grid setup =    0.150 sec

--------------------
COSX GRID GENERATION
--------------------

GRIDX 1
-------
General Integration Accuracy     IntAcc      ... 3.816
Radial Grid Type                 RadialGrid  ... OptM3 with GC (2021)
Angular Grid (max. ang.)         AngularGrid ... 1 (Lebedev-50)
Angular grid pruning method      GridPruning ... 4 (adaptive)
Weight generation scheme         WeightScheme... Becke
Basis function cutoff            BFCut       ... 1.0000e-11
Integration weight cutoff        WCut        ... 1.0000e-14
Angular grids for H and He will be reduced by one unit
Partially contracted basis set               ... on
Rotationally invariant grid construction     ... off

Total number of grid points                  ...     2173
Total number of batches                      ...       36
Average number of points per batch           ...       60
Average number of grid points per atom       ...      543
UseSFitting                                  ... on

GRIDX 2
-------
General Integration Accuracy     IntAcc      ... 4.020
Radial Grid Type                 RadialGrid  ... OptM3 with GC (2021)
Angular Grid (max. ang.)         AngularGrid ... 2 (Lebedev-110)
Angular grid pruning method      GridPruning ... 4 (adaptive)
Weight generation scheme         WeightScheme... Becke
Basis function cutoff            BFCut       ... 1.0000e-11
Integration weight cutoff        WCut        ... 1.0000e-14
Angular grids for H and He will be reduced by one unit
[...]
  3 H s       :     0.875569  s :     0.875569
      pz      :     0.009413  p :     0.052200
      px      :     0.031700
      py      :     0.011087

SPIN
  0 P s       :     0.088969  s :     0.088969
      pz      :     0.871927  p :     0.907520
      px      :     0.017904
      py      :     0.017689
      dz2     :     0.003008  d :    -0.008828
      dxz     :    -0.001756
      dyz     :    -0.001760
      dx2y2   :    -0.004099
      dxy     :    -0.004221
      f0      :     0.000134  f :     0.000864
      f+1     :    -0.000325
      f-1     :    -0.000325
      f+2     :    -0.000048
      f-2     :    -0.000058
      f+3     :     0.000026
      f-3     :     0.001459
  1 H s       :    -0.002430  s :    -0.002430
      pz      :     0.005212  p :     0.006447
      px      :     0.000783
      py      :     0.000451
  2 H s       :    -0.002569  s :    -0.002569
      pz      :     0.005225  p :     0.006479
      px      :     0.000170
      py      :     0.001084
  3 H s       :    -0.002964  s :    -0.002964
      pz      :     0.005232  p :     0.006512
      px      :     0.000898
      py      :     0.000382


                      *****************************
                      * MAYER POPULATION ANALYSIS *
                      *****************************

  NA   - Mulliken gross atomic population
  ZA   - Total nuclear charge
  QA   - Mulliken gross atomic charge
  VA   - Mayer's total valence
  BVA  - Mayer's bonded valence
  FA   - Mayer's free valence

  ATOM       NA         ZA         QA         VA         BVA        FA
  0 P     14.6534    15.0000     0.3466     3.6398     2.7406     0.8992
  1 H      0.7822     1.0000     0.2178     0.9346     0.9345     0.0001
  2 H      0.7821     1.0000     0.2179     0.9346     0.9345     0.0001
  3 H      0.7823     1.0000     0.2177     0.9346     0.9345     0.0001

  Mayer bond orders larger than 0.100000
B(  0-P ,  1-H ) :   0.9135 B(  0-P ,  2-H ) :   0.9134 B(  0-P ,  3-H ) :   0.9137 


-------
TIMINGS
-------

Total SCF time: 0 days 0 hours 0 min 4 sec 

Total time                  ....       4.524 sec
Sum of individual times     ....       4.244 sec  ( 93.8%)

Fock matrix formation       ....       3.771 sec  ( 83.4%)
  Split-RI-J                ....       0.281 sec  (  7.5% of F)
  Chain of spheres X        ....       1.933 sec  ( 51.3% of F)
  XC integration            ....       1.588 sec  ( 42.1% of F)
    Basis function eval.    ....       0.235 sec  ( 14.8% of XC)
    Density eval.           ....       0.470 sec  ( 29.6% of XC)
    XC-Functional eval.     ....       0.325 sec  ( 20.5% of XC)
    XC-Potential eval.      ....       0.380 sec  ( 23.9% of XC)
Diagonalization             ....       0.008 sec  (  0.2%)
Density matrix formation    ....       0.001 sec  (  0.0%)
Population analysis         ....       0.178 sec  (  3.9%)
Initial guess               ....       0.003 sec  (  0.1%)
Orbital Transformation      ....       0.000 sec  (  0.0%)
Orbital Orthonormalization  ....       0.001 sec  (  0.0%)
DIIS solution               ....       0.002 sec  (  0.0%)
Grid generation             ....       0.281 sec  (  6.2%)

Maximum memory used throughout the entire SCF-calculation: 61.9 MB

-------------------------   --------------------
FINAL SINGLE POINT ENERGY      -342.763583139743
-------------------------   --------------------

                                *** OPTIMIZATION RUN DONE ***

                            ***************************************
                            *     ORCA property calculations      *
                            ***************************************

                                    ---------------------
                                    Active property flags
                                    ---------------------
   (+) Dipole Moment


------------------------------------------------------------------------------
                       ORCA ELECTRIC PROPERTIES CALCULATION
------------------------------------------------------------------------------

Dipole Moment Calculation                       ... on
Quadrupole Moment Calculation                   ... off
Polarizability Calculation                      ... off
GBWName                                         ... ph3+.gbw
Electron density                                ... ph3+.scfp
The origin for moment calculation is the CENTER OF MASS  = (-2.814828, -0.584720  0.481833)

-------------
DIPOLE MOMENT
-------------
                                X             Y             Z
Electronic contribution:      0.00491      -0.00237       0.84348
Nuclear contribution   :     -0.00366       0.00161      -1.01969
                        -----------------------------------------
Total Dipole Moment    :      0.00125      -0.00076      -0.17621
                        -----------------------------------------
Magnitude (a.u.)       :      0.17622
Magnitude (Debye)      :      0.44791



--------------------
Rotational spectrum 
--------------------
 
Rotational constants in cm-1:     5.381056     5.363196     3.089610 
Rotational constants in MHz : 161319.988610 160784.560570 92624.182003 

 Dipole components along the rotational axes: 
x,y,z [a.u.] :    -0.000019     0.001574    -0.176209 
x,y,z [Debye]:    -0.000048     0.004001    -0.447887 

 

-------------------------------------------------------------------------------
                               ORCA SCF HESSIAN
-------------------------------------------------------------------------------

                   --------- SHARK INITIALIZATION DONE ---------

Hessian of the Kohn-Sham DFT energy:
Kohn-Sham wavefunction type                      ... UKS
Hartree-Fock exchange scaling                    ...    0.540
Number of operators                              ...    2
Number of atoms                                  ...    4
Basis set dimensions                             ...   55
Integral neglect threshold                       ... 2.5e-11
Integral primitive cutoff                        ... 2.5e-12

Setting up DFT Hessian calculations              ... 

HESS GRID
---------

General Integration Accuracy     IntAcc      ... 4.629
Radial Grid Type                 RadialGrid  ... OptM3 with GC (2021)
Angular Grid (max. ang.)         AngularGrid ... 5 (Lebedev-434)
Angular grid pruning method      GridPruning ... 4 (adaptive)
Weight generation scheme         WeightScheme... Becke
Basis function cutoff            BFCut       ... 1.0000e-11
Integration weight cutoff        WCut        ... 1.0000e-14
Angular grids for H and He will be reduced by one unit
Partially contracted basis set               ... off
Rotationally invariant grid construction     ... off

Total number of grid points                  ...    25990
Total number of batches                      ...      409
Average number of points per batch           ...       63
Average number of grid points per atom       ...     6498

Building densities                               ... done   (      0.0 sec)
Calculating rho(r) on the grid                   ... done   (      0.3 sec)
Building xc-kernel on the grid                   ... done   (      0.7 sec)
                                                     done   (      1.3 sec)

Nuclear repulsion Hessian  (SHARK)               ... done   (      0.0 sec)

----------------------------------------------
Forming right-hand sides of CP-SCF equations     ...
----------------------------------------------
One electron integral derivatives  (SHARK)       ... done   (      0.0 sec)
Transforming the overlap derivative matrices     ... done   (      0.0 sec)
Making the Q(x) pseudodensities                  ... done   (      0.0 sec)
Adding the E*S(x)*S(y) terms to the Hessian      ... done   (      0.0 sec)
Calculating energy weighted overlap derivatives  ... done   (      0.4 sec)
Two electron integral derivatives (SHARK-RI)     ... done   (      1.3 sec)
Exchange-correlation integral derivatives        ... done   (     13.4 sec)
tr(F(y)Q(x)) contribution to the Hessian         ... done   (      0.0 sec)
Response fock operator R(S(x)) (SHARK-RIJCOSX)   ... done   (      0.9 sec)
XC Response fock operator R(S(x))                ... done   (      3.0 sec)
tr(F(y)S(x)) contribution to the Hessian         ... done   (      0.0 sec)
Transforming and finalizing RHSs                 ... done   (      0.0 sec)

----------------------------------------------
Solving the CP-SCF equations (RIJCOSX)           ...
----------------------------------------------
     CP-SCF ITERATION   0:   6.2121e-02 (   0.7 sec   0/ 12 done)
     CP-SCF ITERATION   1:   1.5459e-02 (   0.8 sec   0/ 12 done)
     CP-SCF ITERATION   2:   5.3261e-03 (   0.7 sec   0/ 12 done)
     CP-SCF ITERATION   3:   1.0409e-03 (   0.7 sec   0/ 12 done)
     CP-SCF ITERATION   4:   3.3972e-04 (   0.7 sec   1/ 12 done)
     CP-SCF ITERATION   5:   8.9180e-05 (   0.7 sec  12/ 12 done)
                    *** THE CP-SCF HAS CONVERGED ***

                                                 ... done   (      4.6 sec)
Forming perturbed density Hessian contributions  ... done   (      0.0 sec)
2nd integral derivative contribs (SHARK-RI)      ... done   (      6.0 sec)
Exchange-correlation Hessian                     ... done   (      7.9 sec)
Dipole derivatives                               ... (center of mass: -2.814828, -0.584720  0.481833)done   (      0.2 sec)

Total SCF Hessian time: 0 days 0 hours 0 min 39 sec 

Writing the Hessian file to the disk             ... done


Maximum memory used throughout the entire SCFHESS-calculation: 84.3 MB

-----------------------
VIBRATIONAL FREQUENCIES
-----------------------

Scaling factor for frequencies =  1.000000000  (already applied!)

   0:         0.00 cm**-1
   1:         0.00 cm**-1
   2:         0.00 cm**-1
   3:         0.00 cm**-1
   4:         0.00 cm**-1
   5:         0.00 cm**-1
   6:       778.39 cm**-1
   7:      1056.37 cm**-1
   8:      1059.06 cm**-1
   9:      2503.86 cm**-1
  10:      2568.58 cm**-1
  11:      2570.09 cm**-1


------------
NORMAL MODES
------------

These modes are the Cartesian displacements weighted by the diagonal matrix
M(i,i)=1/sqrt(m[i]) where m[i] is the mass of the displaced atom
Thus, these vectors are normalized but *not* orthogonal

                  0          1          2          3          4          5    
      0       0.000000   0.000000   0.000000   0.000000   0.000000   0.000000
      1       0.000000   0.000000   0.000000   0.000000   0.000000   0.000000
      2       0.000000   0.000000   0.000000   0.000000   0.000000   0.000000
      3       0.000000   0.000000   0.000000   0.000000   0.000000   0.000000
      4       0.000000   0.000000   0.000000   0.000000   0.000000   0.000000
      5       0.000000   0.000000   0.000000   0.000000   0.000000   0.000000
      6       0.000000   0.000000   0.000000   0.000000   0.000000   0.000000
      7       0.000000   0.000000   0.000000   0.000000   0.000000   0.000000
      8       0.000000   0.000000   0.000000   0.000000   0.000000   0.000000
      9       0.000000   0.000000   0.000000   0.000000   0.000000   0.000000
     10       0.000000   0.000000   0.000000   0.000000   0.000000   0.000000
     11       0.000000   0.000000   0.000000   0.000000   0.000000   0.000000
                  6          7          8          9         10         11    
      0       0.000389   0.012503  -0.031043   0.000646  -0.015805   0.035291
      1      -0.000526  -0.031055  -0.012504  -0.000834  -0.035303  -0.015772
      2       0.054059  -0.000903   0.000215  -0.014357   0.000173   0.000333
      3      -0.142971  -0.428137  -0.005775  -0.472728   0.554507  -0.354946
      4      -0.074089   0.642637  -0.174728  -0.301286   0.360082  -0.218068
      5      -0.553910  -0.026483  -0.195089   0.148601  -0.192242   0.121953
      6      -0.014848  -0.256381   0.741617  -0.025069  -0.025361  -0.022647
      7       0.158612  -0.108168  -0.000454   0.574618   0.692843   0.335852
      8      -0.551116   0.195297   0.062444   0.152090   0.201529   0.097991
      9       0.145881   0.300324   0.218055   0.477948  -0.043492  -0.706840
     10      -0.068357   0.419795   0.559399  -0.247696   0.031884   0.366845
     11      -0.556120  -0.141061   0.126043   0.140470  -0.014606  -0.230178


-----------
IR SPECTRUM
-----------

 Mode   freq       eps      Int      T**2         TX        TY        TZ
       cm**-1   L/(mol*cm) km/mol    a.u.
----------------------------------------------------------------------------
  6:    778.39   0.000110    0.56  0.000044  ( 0.001009 -0.000088 -0.006559)
  7:   1056.37   0.001485    7.51  0.000439  ( 0.008310 -0.019228  0.000060)
  8:   1059.06   0.001560    7.89  0.000460  (-0.020076 -0.007525 -0.000310)
  9:   2503.86   0.003092   15.63  0.000385  (-0.000975  0.001222  0.019569)
 10:   2568.58   0.011227   56.74  0.001364  ( 0.015331  0.033601  0.000122)
 11:   2570.09   0.011249   56.85  0.001366  (-0.033831  0.014875 -0.000259)

* The epsilon (eps) is given for a Dirac delta lineshape.
** The dipole moment derivative (T) already includes vibrational overlap.

The first frequency considered to be a vibration is 6
The total number of vibrations considered is 6


--------------------------
THERMOCHEMISTRY AT 298.15K
--------------------------

Temperature         ... 298.15 K
Pressure            ... 1.00 atm
Total Mass          ... 34.00 AMU

Throughout the following assumptions are being made:
  (1) The electronic state is orbitally nondegenerate
      but the spin degeneracy is treated
  (2) There are no thermally accessible electronically excited states
  (3) Hindered rotations indicated by low frequency modes are not
      treated as such but are treated as vibrations and this may
      cause some error
  (4) All equations used are the standard statistical mechanics
      equations for an ideal gas
  (5) All vibrations are strictly harmonic

freq.     778.39  E(vib)   ...       0.05 
freq.    1056.37  E(vib)   ...       0.02 
freq.    1059.06  E(vib)   ...       0.02 
freq.    2503.86  E(vib)   ...       0.00 
freq.    2568.58  E(vib)   ...       0.00 
freq.    2570.09  E(vib)   ...       0.00 

------------
INNER ENERGY
------------

The inner energy is: U= E(el) + E(ZPE) + E(vib) + E(rot) + E(trans)
    E(el)   - is the total energy from the electronic structure calculation
              = E(kin-el) + E(nuc-el) + E(el-el) + E(nuc-nuc)
    E(ZPE)  - the the zero temperature vibrational energy from the frequency calculation
    E(vib)  - the the finite temperature correction to E(ZPE) due to population
              of excited vibrational states
    E(rot)  - is the rotational thermal energy
    E(trans)- is the translational thermal energy

Summary of contributions to the inner energy U:
Electronic energy                ...   -342.76358314 Eh
Zero point energy                ...      0.02400355 Eh      15.06 kcal/mol
Thermal vibrational correction   ...      0.00014393 Eh       0.09 kcal/mol
Thermal rotational correction    ...      0.00141627 Eh       0.89 kcal/mol
Thermal translational correction ...      0.00141627 Eh       0.89 kcal/mol
-----------------------------------------------------------------------
Total thermal energy                   -342.73660312 Eh


Summary of corrections to the electronic energy:
(perhaps to be used in another calculation)
Total thermal correction                  0.00297647 Eh       1.87 kcal/mol
Non-thermal (ZPE) correction              0.02400355 Eh      15.06 kcal/mol
-----------------------------------------------------------------------
Total correction                          0.02698002 Eh      16.93 kcal/mol


--------
ENTHALPY
--------

The enthalpy is H = U + kB*T
                kB is Boltzmann's constant
Total free energy                 ...   -342.73660312 Eh 
Thermal Enthalpy correction       ...      0.00094421 Eh       0.59 kcal/mol
-----------------------------------------------------------------------
Total Enthalpy                    ...   -342.73565891 Eh


Note: Only C1 symmetry has been detected, increase convergence thresholds 
      if your molecule has a higher symmetry. Symmetry factor of 1.0 is   
      used for the rotational entropy correction. 
 

Note: Rotational entropy computed according to Herzberg 
Infrared and Raman Spectra, Chapter V,1, Van Nostrand Reinhold, 1945 
Point Group:  C1, Symmetry Number:   1  
Rotational constants in cm-1:     5.381056     5.363196     3.089610 

Vibrational entropy computed according to the QRRHO of S. Grimme
Chem.Eur.J. 2012 18 9955


-------
ENTROPY
-------

The entropy contributions are T*S = T*(S(el)+S(vib)+S(rot)+S(trans))
     S(el)   - electronic entropy
     S(vib)  - vibrational entropy
     S(rot)  - rotational entropy
     S(trans)- translational entropy
The entropies will be listed as multiplied by the temperature to get
units of energy

Electronic entropy                ...      0.00065446 Eh      0.41 kcal/mol
Vibrational entropy               ...      0.00017788 Eh      0.11 kcal/mol
Rotational entropy                ...      0.00739089 Eh      4.64 kcal/mol
Translational entropy             ...      0.01734327 Eh     10.88 kcal/mol
-----------------------------------------------------------------------
Final entropy term                ...      0.02556650 Eh     16.04 kcal/mol

In case the symmetry of your molecule has not been determined correctly
or in case you have a reason to use a different symmetry number we print 
out the resulting rotational entropy values for sn=1,12 :
 --------------------------------------------------------
|  sn= 1 | S(rot)=       0.00739089 Eh      4.64 kcal/mol|
|  sn= 2 | S(rot)=       0.00673644 Eh      4.23 kcal/mol|
|  sn= 3 | S(rot)=       0.00635360 Eh      3.99 kcal/mol|
|  sn= 4 | S(rot)=       0.00608198 Eh      3.82 kcal/mol|
|  sn= 5 | S(rot)=       0.00587129 Eh      3.68 kcal/mol|
|  sn= 6 | S(rot)=       0.00569915 Eh      3.58 kcal/mol|
|  sn= 7 | S(rot)=       0.00555360 Eh      3.48 kcal/mol|
|  sn= 8 | S(rot)=       0.00542752 Eh      3.41 kcal/mol|
|  sn= 9 | S(rot)=       0.00531632 Eh      3.34 kcal/mol|
|  sn=10 | S(rot)=       0.00521684 Eh      3.27 kcal/mol|
|  sn=11 | S(rot)=       0.00512685 Eh      3.22 kcal/mol|
|  sn=12 | S(rot)=       0.00504469 Eh      3.17 kcal/mol|
 --------------------------------------------------------


-------------------
GIBBS FREE ENERGY
-------------------

The Gibbs free energy is G = H - T*S

Total enthalpy                    ...   -342.73565891 Eh 
Total entropy correction          ...     -0.02556650 Eh    -16.04 kcal/mol
-----------------------------------------------------------------------
Final Gibbs free energy         ...   -342.76122541 Eh

For completeness - the Gibbs free energy minus the electronic energy
G-E(el)                           ...      0.00235773 Eh      1.48 kcal/mol


Timings for individual modules:

Sum of individual times         ...       89.630 sec (=   1.494 min)
GTO integral calculation        ...        6.899 sec (=   0.115 min)   7.7 %
SCF iterations                  ...       30.441 sec (=   0.507 min)  34.0 %
SCF Gradient evaluation         ...        6.753 sec (=   0.113 min)   7.5 %
Geometry relaxation             ...        5.453 sec (=   0.091 min)   6.1 %
Analytical frequency calculation...       40.084 sec (=   0.668 min)  44.7 %
                             ****ORCA TERMINATED NORMALLY****
TOTAL RUN TIME: 0 days 0 hours 1 minutes 30 seconds 361 msec
