
                                 *****************
                                 * O   R   C   A *
                                 *****************

                                            #,                                       
                                            ###                                      
                                            ####                                     
                                            #####                                    
                                            ######                                   
                                           ########,                                 
                                     ,,################,,,,,                         
                               ,,#################################,,                 
                          ,,##########################################,,             
                       ,#########################################, ''#####,          
                    ,#############################################,,   '####,        
                  ,##################################################,,,,####,       
                ,###########''''           ''''###############################       
              ,#####''   ,,,,##########,,,,          '''####'''          '####       
            ,##' ,,,,###########################,,,                        '##       
           ' ,,###''''                  '''############,,,                           
         ,,##''                                '''############,,,,        ,,,,,,###''
      ,#''                                            '''#######################'''  
     '                                                          ''''####''''         
             ,#######,   #######,   ,#######,      ##                                
            ,#'     '#,  ##    ##  ,#'     '#,    #''#        ######   ,####,        
            ##       ##  ##   ,#'  ##            #'  '#       #        #'  '#        
            ##       ##  #######   ##           ,######,      #####,   #    #        
            '#,     ,#'  ##    ##  '#,     ,#' ,#      #,         ##   #,  ,#        
             '#######'   ##     ##  '#######'  #'      '#     #####' # '####'        



                  #######################################################
                  #                        -***-                        #
                  #          Department of theory and spectroscopy      #
                  #    Directorship and core code : Frank Neese         #
                  #        Max Planck Institute fuer Kohlenforschung    #
                  #                Kaiser Wilhelm Platz 1               #
                  #                 D-45470 Muelheim/Ruhr               #
                  #                      Germany                        #
                  #                                                     #
                  #                  All rights reserved                #
                  #                        -***-                        #
                  #######################################################


                         Program Version 5.0.2 -  RELEASE  -


 With contributions from (in alphabetic order):
   Daniel Aravena         : Magnetic Suceptibility
   Michael Atanasov       : Ab Initio Ligand Field Theory (pilot matlab implementation)
   Alexander A. Auer      : GIAO ZORA, VPT2 properties, NMR spectrum
   Ute Becker             : Parallelization
   Giovanni Bistoni       : ED, misc. LED, open-shell LED, HFLD
   Martin Brehm           : Molecular dynamics
   Dmytro Bykov           : SCF Hessian
   Vijay G. Chilkuri      : MRCI spin determinant printing, contributions to CSF-ICE
   Dipayan Datta          : RHF DLPNO-CCSD density
   Achintya Kumar Dutta   : EOM-CC, STEOM-CC
   Dmitry Ganyushin       : Spin-Orbit,Spin-Spin,Magnetic field MRCI
   Miquel Garcia          : C-PCM and meta-GGA Hessian, CC/C-PCM, Gaussian charge scheme
   Yang Guo               : DLPNO-NEVPT2, F12-NEVPT2, CIM, IAO-localization
   Andreas Hansen         : Spin unrestricted coupled pair/coupled cluster methods
   Benjamin Helmich-Paris : MC-RPA, TRAH-SCF, COSX integrals
   Lee Huntington         : MR-EOM, pCC
   Robert Izsak           : Overlap fitted RIJCOSX, COSX-SCS-MP3, EOM
   Marcus Kettner         : VPT2
   Christian Kollmar      : KDIIS, OOCD, Brueckner-CCSD(T), CCSD density, CASPT2, CASPT2-K
   Simone Kossmann        : Meta GGA functionals, TD-DFT gradient, OOMP2, MP2 Hessian
   Martin Krupicka        : Initial AUTO-CI
   Lucas Lang             : DCDCAS
   Marvin Lechner         : AUTO-CI (C++ implementation), FIC-MRCC
   Dagmar Lenk            : GEPOL surface, SMD
   Dimitrios Liakos       : Extrapolation schemes; Compound Job, initial MDCI parallelization
   Dimitrios Manganas     : Further ROCIS development; embedding schemes
   Dimitrios Pantazis     : SARC Basis sets
   Anastasios Papadopoulos: AUTO-CI, single reference methods and gradients
   Taras Petrenko         : DFT Hessian,TD-DFT gradient, ASA, ECA, R-Raman, ABS, FL, XAS/XES, NRVS
   Peter Pinski           : DLPNO-MP2, DLPNO-MP2 Gradient
   Christoph Reimann      : Effective Core Potentials
   Marius Retegan         : Local ZFS, SOC
   Christoph Riplinger    : Optimizer, TS searches, QM/MM, DLPNO-CCSD(T), (RO)-DLPNO pert. Triples
   Tobias Risthaus        : Range-separated hybrids, TD-DFT gradient, RPA, STAB
   Michael Roemelt        : Original ROCIS implementation
   Masaaki Saitow         : Open-shell DLPNO-CCSD energy and density
   Barbara Sandhoefer     : DKH picture change effects
   Avijit Sen             : IP-ROCIS
   Kantharuban Sivalingam : CASSCF convergence, NEVPT2, FIC-MRCI
   Bernardo de Souza      : ESD, SOC TD-DFT
   Georgi Stoychev        : AutoAux, RI-MP2 NMR, DLPNO-MP2 response
   Willem Van den Heuvel  : Paramagnetic NMR
   Boris Wezisla          : Elementary symmetry handling
   Frank Wennmohs         : Technical directorship


 We gratefully acknowledge several colleagues who have allowed us to
 interface, adapt or use parts of their codes:
   Stefan Grimme, W. Hujo, H. Kruse, P. Pracht,  : VdW corrections, initial TS optimization,
                  C. Bannwarth, S. Ehlert          DFT functionals, gCP, sTDA/sTD-DF
   Ed Valeev, F. Pavosevic, A. Kumar             : LibInt (2-el integral package), F12 methods
   Garnet Chan, S. Sharma, J. Yang, R. Olivares  : DMRG
   Ulf Ekstrom                                   : XCFun DFT Library
   Mihaly Kallay                                 : mrcc  (arbitrary order and MRCC methods)
   Jiri Pittner, Ondrej Demel                    : Mk-CCSD
   Frank Weinhold                                : gennbo (NPA and NBO analysis)
   Christopher J. Cramer and Donald G. Truhlar   : smd solvation model
   Lars Goerigk                                  : TD-DFT with DH, B97 family of functionals
   V. Asgeirsson, H. Jonsson                     : NEB implementation
   FAccTs GmbH                                   : IRC, NEB, NEB-TS, DLPNO-Multilevel, CI-OPT
                                                   MM, QMMM, 2- and 3-layer-ONIOM, Crystal-QMMM,
                                                   LR-CPCM, SF, NACMEs, symmetry and pop. for TD-DFT,
                                                   nearIR, NL-DFT gradient (VV10), updates on ESD,
                                                   ML-optimized integration grids
   S Lehtola, MJT Oliveira, MAL Marques          : LibXC Library
   Liviu Ungur et al                             : ANISO software


 Your calculation uses the libint2 library for the computation of 2-el integrals
 For citations please refer to: http://libint.valeyev.net

 Your ORCA version has been built with support for libXC version: 5.1.0
 For citations please refer to: https://tddft.org/programs/libxc/

 This ORCA versions uses:
   CBLAS   interface :  Fast vector & matrix operations
   LAPACKE interface :  Fast linear algebra routines
   Shared memory     :  Shared parallel matrices


XCFun DFT library Copyright 2009-2010 Ulf Ekstrom and contributors.
See http://admol.org/xcfun for more information.
This is free software; see the source code for copying conditions.
There is ABSOLUTELY NO WARRANTY; not even for MERCHANTABILITY or FITNESS FOR A PARTICULAR PURPOSE.
For details see the documentation.
Scientific users of this library should cite U. Ekstrom, L. Visscher, R. Bast, A. J. Thorvaldsen and K. Ruud;
J.Chem.Theor.Comp. 2010, DOI: 10.1021/ct100117s
XCFun Version 0.99 

================================================================================

----- Orbital basis set information -----
Your calculation utilizes the basis: def2-TZVP
   F. Weigend and R. Ahlrichs, Phys. Chem. Chem. Phys. 7, 3297 (2005).

----- AuxJ basis set information -----
Your calculation utilizes the auxiliary basis: def2/J
   F. Weigend, Phys. Chem. Chem. Phys. 8, 1057 (2006).

================================================================================
                                        WARNINGS
                       Please study these warnings very carefully!
================================================================================


WARNING: your system is open-shell and RHF/RKS was chosen
  ===> : WILL SWITCH to UHF/UKS


WARNING: Geometry Optimization
  ===> : Switching off AutoStart
         For restart on a previous wavefunction, please use MOREAD

WARNING: Minnesota functionals are quite sensitive to the integration grid.
         see SE Wheeler, KN Houk, JCTC 2010, 6, 395,
             N Mardirossian, M Head-Gordon, JCTC 2016, 12, 4303.
         DEFGRID3 seems to be a minimum grid for reliable results with these functionals!
  ===> : Please increase the integration grid!


INFO   : the flag for use of the SHARK integral package has been found!

================================================================================
                                       INPUT FILE
================================================================================
NAME = ph+.inp
|  1> # avogadro generated ORCA input file 
|  2> # PH+ DUPLETO - GEOMETRIA
|  3> # 
|  4> ! m062x def2-tzvp OPT FREQ
|  5> %maxcore 3000 
|  6> 
|  7> * xyz 1 2
|  8>    P       -4.07437        0.44335        0.00000
|  9>    H       -2.67483        0.28199        0.00000
| 10> *
| 11> 
| 12> 
| 13>                          ****END OF INPUT****
================================================================================

                       *****************************
                       * Geometry Optimization Run *
                       *****************************

Geometry optimization settings:
Update method            Update   .... BFGS
Choice of coordinates    CoordSys .... Z-matrix Internals
Initial Hessian          InHess   .... Almoef's Model

Convergence Tolerances:
Energy Change            TolE     ....  5.0000e-06 Eh
Max. Gradient            TolMAXG  ....  3.0000e-04 Eh/bohr
RMS Gradient             TolRMSG  ....  1.0000e-04 Eh/bohr
Max. Displacement        TolMAXD  ....  4.0000e-03 bohr
RMS Displacement         TolRMSD  ....  2.0000e-03 bohr
Strict Convergence                ....  False
------------------------------------------------------------------------------
                        ORCA OPTIMIZATION COORDINATE SETUP
------------------------------------------------------------------------------

The optimization will be done in new redundant internal coordinates
Making redundant internal coordinates   ...  (new redundants) done
Evaluating the initial hessian          ...  (Almloef) done
Evaluating the coordinates              ...  done
Calculating the B-matrix                .... done
Calculating the G-matrix                .... done
Diagonalizing the G-matrix              .... done
The first mode is                       ....    0
The number of degrees of freedom        ....    1

    -----------------------------------------------------------------
                    Redundant Internal Coordinates


    -----------------------------------------------------------------
         Definition                    Initial Value    Approx d2E/dq
    -----------------------------------------------------------------
      1. B(H   1,P   0)                  1.4088         0.375210   
    -----------------------------------------------------------------

Number of atoms                         .... 2
Number of degrees of freedom            .... 1

         *************************************************************
         *                GEOMETRY OPTIMIZATION CYCLE   1            *
         *************************************************************
---------------------------------
CARTESIAN COORDINATES (ANGSTROEM)
---------------------------------
  P     -4.074370    0.443350    0.000000
  H     -2.674830    0.281990    0.000000

----------------------------
CARTESIAN COORDINATES (A.U.)
----------------------------
  NO LB      ZA    FRAG     MASS         X           Y           Z
   0 P    15.0000    0    30.974   -7.699443    0.837810    0.000000
   1 H     1.0000    0     1.008   -5.054696    0.532884    0.000000

--------------------------------
INTERNAL COORDINATES (ANGSTROEM)
--------------------------------
 P      0   0   0     0.000000000000     0.00000000     0.00000000
 H      1   0   0     1.408811293680     0.00000000     0.00000000

---------------------------
INTERNAL COORDINATES (A.U.)
---------------------------
 P      0   0   0     0.000000000000     0.00000000     0.00000000
 H      1   0   0     2.662267519430     0.00000000     0.00000000

---------------------
BASIS SET INFORMATION
---------------------
There are 2 groups of distinct atoms

 Group   1 Type P   : 14s9p3d1f contracted to 5s5p2d1f pattern {73211/51111/21/1}
 Group   2 Type H   : 5s1p contracted to 3s1p pattern {311/1}

Atom   0P    basis set group =>   1
Atom   1H    basis set group =>   2
---------------------------------
AUXILIARY/J BASIS SET INFORMATION
---------------------------------
There are 2 groups of distinct atoms

 Group   1 Type P   : 14s5p5d2f1g contracted to 8s4p3d1f1g pattern {71111111/2111/311/2/1}
 Group   2 Type H   : 5s2p1d contracted to 3s1p1d pattern {311/2/1}

Atom   0P    basis set group =>   1
Atom   1H    basis set group =>   2
------------------------------------------------------------------------------
                           ORCA GTO INTEGRAL CALCULATION
                           -- RI-GTO INTEGRALS CHOSEN --
------------------------------------------------------------------------------
------------------------------------------------------------------------------
                   ___                                                        
                  /   \      - P O W E R E D   B Y -                         
                 /     \                                                     
                 |  |  |   _    _      __       _____    __    __             
                 |  |  |  | |  | |    /  \     |  _  \  |  |  /  |          
                  \  \/   | |  | |   /    \    | | | |  |  | /  /          
                 / \  \   | |__| |  /  /\  \   | |_| |  |  |/  /          
                |  |  |   |  __  | /  /__\  \  |    /   |      \           
                |  |  |   | |  | | |   __   |  |    \   |  |\   \          
                \     /   | |  | | |  |  |  |  | |\  \  |  | \   \       
                 \___/    |_|  |_| |__|  |__|  |_| \__\ |__|  \__/        
                                                                              
                      - O R C A' S   B I G   F R I E N D -                    
                                      &                                       
                       - I N T E G R A L  F E E D E R -                       
                                                                              
 v1 FN, 2020, v2 2021                                                         
------------------------------------------------------------------------------


Reading SHARK input file ph+.SHARKINP.tmp ... ok
----------------------
SHARK INTEGRAL PACKAGE
----------------------

Number of atoms                             ...      2
Number of basis functions                   ...     43
Number of shells                            ...     17
Maximum angular momentum                    ...      3
Integral batch strategy                     ... SHARK/LIBINT Hybrid
RI-J (if used) integral strategy            ... SPLIT-RIJ (Revised 2003 algorithm where possible)
Printlevel                                  ...      1
Contraction scheme used                     ... SEGMENTED contraction
Coulomb Range Separation                    ... NOT USED
Exchange Range Separation                   ... NOT USED
Finite Nucleus Model                        ... NOT USED
Auxiliary Coulomb fitting basis             ... AVAILABLE
   # of basis functions in Aux-J            ...     62
   # of shells in Aux-J                     ...     22
   Maximum angular momentum in Aux-J        ...      4
Auxiliary J/K fitting basis                 ... NOT available
Auxiliary Correlation fitting basis         ... NOT available
Auxiliary 'external' fitting basis          ... NOT available
Integral threshold                          ...     2.500000e-11
Primitive cut-off                           ...     2.500000e-12
Primitive pair pre-selection threshold      ...     2.500000e-12

Calculating pre-screening integrals         ... done (  0.1 sec) Dimension = 17
Organizing shell pair data                  ... done (  0.0 sec)
Shell pair information
Total number of shell pairs                 ...       153
Shell pairs after pre-screening             ...       153
Total number of primitive shell pairs       ...       600
Primitive shell pairs kept                  ...       573
          la=0 lb=0:     36 shell pairs
          la=1 lb=0:     48 shell pairs
          la=1 lb=1:     21 shell pairs
          la=2 lb=0:     16 shell pairs
          la=2 lb=1:     12 shell pairs
          la=2 lb=2:      3 shell pairs
          la=3 lb=0:      8 shell pairs
          la=3 lb=1:      6 shell pairs
          la=3 lb=2:      2 shell pairs
          la=3 lb=3:      1 shell pairs

Calculating one electron integrals          ... done (  0.0 sec)
Calculating RI/J V-Matrix + Cholesky decomp.... done (  0.0 sec)
Calculating Nuclear repulsion               ... done (  0.0 sec) ENN=      5.634294784624 Eh

SHARK setup successfully completed in   0.2 seconds

Maximum memory used throughout the entire GTOINT-calculation: 15.2 MB
-------------------------------------------------------------------------------
                                 ORCA SCF
-------------------------------------------------------------------------------

------------
SCF SETTINGS
------------
Hamiltonian:
 Density Functional     Method          .... DFT(GTOs)
 Exchange Functional    Exchange        .... M062X
 Correlation Functional Correlation     .... M062X
 Gradients option       PostSCFGGA      .... off
 Hybrid DFT is turned on
   Fraction HF Exchange ScalHFX         ....  0.540000
   Scaling of DF-GGA-X  ScalDFX         ....  0.460000
   Scaling of DF-GGA-C  ScalDFC         ....  1.000000
   Scaling of DF-LDA-C  ScalLDAC        ....  1.000000
   Perturbative correction              ....  0.000000
   Density functional embedding theory  .... OFF
 RI-approximation to the Coulomb term is turned on
   Number of AuxJ basis functions       .... 62
   RIJ-COSX (HFX calculated with COS-X)).... on


General Settings:
 Integral files         IntName         .... ph+
 Hartree-Fock type      HFTyp           .... UHF
 Total Charge           Charge          ....    1
 Multiplicity           Mult            ....    2
 Number of Electrons    NEL             ....   15
 Basis Dimension        Dim             ....   43
 Nuclear Repulsion      ENuc            ....      5.6342947846 Eh

Convergence Acceleration:
 DIIS                   CNVDIIS         .... on
   Start iteration      DIISMaxIt       ....    12
   Startup error        DIISStart       ....  0.200000
   # of expansion vecs  DIISMaxEq       ....     5
   Bias factor          DIISBfac        ....   1.050
   Max. coefficient     DIISMaxC        ....  10.000
 Trust-Rad. Augm. Hess. CNVTRAH         .... auto
   Auto Start mean grad. ratio tolernc. ....  1.125000
   Auto Start start iteration           ....    20
   Auto Start num. interpolation iter.  ....    10
   Max. Number of Micro iterations      ....    16
   Max. Number of Macro iterations      .... Maxiter - #DIIS iter
   Number of Davidson start vectors     ....     2
   Converg. threshold I  (grad. norm)   ....   1.000e-05
   Converg. threshold II (energy diff.) ....   1.000e-08
   Grad. Scal. Fac. for Micro threshold ....   0.100
   Minimum threshold for Micro iter.    ....   0.010
   NR start threshold (gradient norm)   ....   0.001
   Initial trust radius                 ....   0.400
   Minimum AH scaling param. (alpha)    ....   1.000
   Maximum AH scaling param. (alpha)    .... 1000.000
   Orbital update algorithm             .... Taylor
   White noise on init. David. guess    .... on
   Maximum white noise                  ....   0.010
   Quad. conv. algorithm                .... NR
 SOSCF                  CNVSOSCF        .... off
 Level Shifting         CNVShift        .... on
   Level shift para.    LevelShift      ....    0.2500
   Turn off err/grad.   ShiftErr        ....    0.0010
 Zerner damping         CNVZerner       .... off
 Static damping         CNVDamp         .... on
   Fraction old density DampFac         ....    0.7000
   Max. Damping (<1)    DampMax         ....    0.9800
   Min. Damping (>=0)   DampMin         ....    0.0000
   Turn off err/grad.   DampErr         ....    0.1000
 Fernandez-Rico         CNVRico         .... off

SCF Procedure:
 Maximum # iterations   MaxIter         ....   125
 SCF integral mode      SCFMode         .... Direct
   Integral package                     .... SHARK and LIBINT hybrid scheme
 Reset frequency        DirectResetFreq ....    20
 Integral Threshold     Thresh          ....  2.500e-11 Eh
 Primitive CutOff       TCut            ....  2.500e-12 Eh

Convergence Tolerance:
 Convergence Check Mode ConvCheckMode   .... Total+1el-Energy
 Convergence forced     ConvForced      .... 0
 Energy Change          TolE            ....  1.000e-08 Eh
 1-El. energy change                    ....  1.000e-05 Eh
 DIIS Error             TolErr          ....  5.000e-07


Diagonalization of the overlap matrix:
Smallest eigenvalue                        ... 2.087e-02
Time for diagonalization                   ...    0.025 sec
Threshold for overlap eigenvalues          ... 1.000e-08
Number of eigenvalues below threshold      ... 0
Time for construction of square roots      ...    0.003 sec
Total time needed                          ...    0.028 sec

Time for model grid setup =    0.035 sec

------------------------------
INITIAL GUESS: MODEL POTENTIAL
------------------------------
Loading Hartree-Fock densities                     ... done
Calculating cut-offs                               ... done
Initializing the effective Hamiltonian             ... done
Setting up the integral package (SHARK)            ... done
Starting the Coulomb interaction                   ... done (   0.0 sec)
Reading the grid                                   ... done
Mapping shells                                     ... done
Starting the XC term evaluation                    ... done (   0.0 sec)
  promolecular density results
     # of electrons  =     15.999663607
     EX              =    -22.735618612
     EC              =     -0.576890563
     EX+EC           =    -23.312509175
Transforming the Hamiltonian                       ... done (   0.0 sec)
Diagonalizing the Hamiltonian                      ... done (   0.0 sec)
Back transforming the eigenvectors                 ... done (   0.0 sec)
Now organizing SCF variables                       ... done
                      ------------------
                      INITIAL GUESS DONE (   0.1 sec)
                      ------------------
-------------------
DFT GRID GENERATION
-------------------

General Integration Accuracy     IntAcc      ... 4.388
Radial Grid Type                 RadialGrid  ... OptM3 with GC (2021)
Angular Grid (max. ang.)         AngularGrid ... 4 (Lebedev-302)
Angular grid pruning method      GridPruning ... 4 (adaptive)
Weight generation scheme         WeightScheme... Becke
Basis function cutoff            BFCut       ... 1.0000e-11
Integration weight cutoff        WCut        ... 1.0000e-14
Angular grids for H and He will be reduced by one unit
Partially contracted basis set               ... off
Rotationally invariant grid construction     ... off

Total number of grid points                  ...    10693
Total number of batches                      ...      168
Average number of points per batch           ...       63
Average number of grid points per atom       ...     5347
Time for grid setup =    0.105 sec

--------------------
COSX GRID GENERATION
--------------------

GRIDX 1
-------
General Integration Accuracy     IntAcc      ... 3.816
Radial Grid Type                 RadialGrid  ... OptM3 with GC (2021)
Angular Grid (max. ang.)         AngularGrid ... 1 (Lebedev-50)
Angular grid pruning method      GridPruning ... 4 (adaptive)
Weight generation scheme         WeightScheme... Becke
Basis function cutoff            BFCut       ... 1.0000e-11
Integration weight cutoff        WCut        ... 1.0000e-14
Angular grids for H and He will be reduced by one unit
Partially contracted basis set               ... on
Rotationally invariant grid construction     ... off

Total number of grid points                  ...     1286
Total number of batches                      ...       21
Average number of points per batch           ...       61
Average number of grid points per atom       ...      643
UseSFitting                                  ... on

GRIDX 2
-------
General Integration Accuracy     IntAcc      ... 4.020
Radial Grid Type                 RadialGrid  ... OptM3 with GC (2021)
Angular Grid (max. ang.)         AngularGrid ... 2 (Lebedev-110)
Angular grid pruning method      GridPruning ... 4 (adaptive)
Weight generation scheme         WeightScheme... Becke
Basis function cutoff            BFCut       ... 1.0000e-11
Integration weight cutoff        WCut        ... 1.0000e-14
Angular grids for H and He will be reduced by one unit
Partially contracted basis set               ... on
Rotationally invariant grid construction     ... off

Total number of grid points                  ...     2792
Total number of batches                      ...       45
Average number of points per batch           ...       62
Average number of grid points per atom       ...     1396
UseSFitting                                  ... on

GRIDX 3
-------
General Integration Accuracy     IntAcc      ... 4.338
Radial Grid Type                 RadialGrid  ... OptM3 with GC (2021)
Angular Grid (max. ang.)         AngularGrid ... 3 (Lebedev-194)
Angular grid pruning method      GridPruning ... 4 (adaptive)
Weight generation scheme         WeightScheme... Becke
Basis function cutoff            BFCut       ... 1.0000e-11
Integration weight cutoff        WCut        ... 1.0000e-14
Angular grids for H and He will be reduced by one unit
Partially contracted basis set               ... on
Rotationally invariant grid construction     ... off

Total number of grid points                  ...     6825
Total number of batches                      ...      108
Average number of points per batch           ...       63
Average number of grid points per atom       ...     3413
UseSFitting                                  ... on

Time for X-Grid setup             =    0.160 sec

--------------
SCF ITERATIONS
--------------
ITER       Energy         Delta-E        Max-DP      RMS-DP      [F,P]     Damp
               ***  Starting incremental Fock matrix formation  ***
  0   -341.4618134455   0.000000000000 0.04525961  0.00152453  0.0817552 0.7000
  1   -341.4706110759  -0.008797630392 0.03733067  0.00129906  0.0553621 0.7000
                               ***Turning on DIIS***
  2   -341.4764878390  -0.005876763070 0.08239330  0.00298124  0.0332934 0.0000
  3   -341.4885538657  -0.012066026795 0.02423222  0.00063617  0.0176294 0.0000
  4   -341.4890893875  -0.000535521801 0.00897962  0.00022274  0.0045806 0.0000
  5   -341.4891551369  -0.000065749354 0.00310398  0.00008181  0.0010586 0.0000
  6   -341.4891674584  -0.000012321465 0.00155028  0.00004557  0.0004143 0.0000
               *** Restarting incremental Fock matrix formation ***
                                   *** Resetting DIIS ***
  7   -341.4891710186  -0.000003560222 0.00015894  0.00000644  0.0000469 0.0000
  8   -341.4891710700  -0.000000051376 0.00004072  0.00000162  0.0000138 0.0000
  9   -341.4891710765  -0.000000006571 0.00001119  0.00000059  0.0000043 0.0000
                 **** Energy Check signals convergence ****

               *****************************************************
               *                     SUCCESS                       *
               *           SCF CONVERGED AFTER  10 CYCLES          *
               *****************************************************

Old exchange energy                            =    -12.255978887 Eh
New exchange energy                            =    -12.255969479 Eh
Exchange energy change after final integration =      0.000009409 Eh
Total energy after final integration           =   -341.489161669 Eh
Final COS-X integration done in                =     0.485 sec

----------------
TOTAL SCF ENERGY
----------------

Total Energy       :         -341.48916167 Eh           -9292.39251 eV

Components:
Nuclear Repulsion  :            5.63429478 Eh             153.31696 eV
Electronic Energy  :         -347.12345645 Eh           -9445.70946 eV
One Electron Energy:         -477.68144214 Eh          -12998.37287 eV
Two Electron Energy:          130.55798569 Eh            3552.66340 eV
Max COSX asymmetry :            0.00000081 Eh               0.00002 eV

Virial components:
Potential Energy   :         -682.43814655 Eh          -18570.08605 eV
Kinetic Energy     :          340.94898488 Eh            9277.69355 eV
Virial Ratio       :            2.00158433


DFT components:
N(Alpha)           :        7.999999724737 electrons
N(Beta)            :        7.000000081370 electrons
N(Total)           :       14.999999806107 electrons
E(XC)              :      -10.998832438360 Eh       
DFET-embed. en.    :        0.000000000000 Eh       

---------------
SCF CONVERGENCE
---------------

  Last Energy change         ...   -1.1795e-09  Tolerance :   1.0000e-08
  Last MAX-Density change    ...    0.0000e+00  Tolerance :   1.0000e-07
  Last RMS-Density change    ...    0.0000e+00  Tolerance :   5.0000e-09
  Last DIIS Error            ...    1.2923e-06  Tolerance :   5.0000e-07

             **** THE GBW FILE WAS UPDATED (ph+.gbw) ****
             **** DENSITY ph+.scfp WAS UPDATED ****
             **** ENERGY FILE WAS UPDATED (ph+.en.tmp) ****
----------------------
UHF SPIN CONTAMINATION
----------------------

Warning: in a DFT calculation there is little theoretical justification to 
         calculate <S**2> as in Hartree-Fock theory. We will do it anyways
         but you should keep in mind that the values have only limited relevance

Expectation value of <S**2>     :     0.753715
Ideal value S*(S+1) for S=0.5   :     0.750000
Deviation                       :     0.003715

             **** THE GBW FILE WAS UPDATED (ph+.gbw) ****
             **** DENSITY ph+.scfp WAS UPDATED ****
----------------
ORBITAL ENERGIES
----------------
                 SPIN UP ORBITALS
  NO   OCC          E(Eh)            E(eV) 
   0   1.0000     -78.453521     -2134.8288 
   1   1.0000      -7.259059      -197.5290 
   2   1.0000      -5.381794      -146.4460 
   3   1.0000      -5.370613      -146.1418 
   4   1.0000      -5.370300      -146.1333 
   5   1.0000      -1.016347       -27.6562 
   6   1.0000      -0.715782       -19.4774 
   7   1.0000      -0.617069       -16.7913 
   8   0.0000      -0.436556       -11.8793 
   9   0.0000      -0.191335        -5.2065 
  10   0.0000      -0.040867        -1.1120 
  11   0.0000       0.000817         0.0222 
  12   0.0000       0.000997         0.0271 
  13   0.0000       0.005508         0.1499 
  14   0.0000       0.012260         0.3336 
  15   0.0000       0.031475         0.8565 
  16   0.0000       0.040388         1.0990 
  17   0.0000       0.046709         1.2710 
  18   0.0000       0.210436         5.7262 
  19   0.0000       0.323585         8.8052 
  20   0.0000       0.896861        24.4048 
  21   0.0000       0.901890        24.5417 
  22   0.0000       0.907348        24.6902 
  23   0.0000       0.908116        24.7111 
  24   0.0000       0.915792        24.9200 
  25   0.0000       0.919734        25.0272 
  26   0.0000       0.925520        25.1847 
  27   0.0000       1.007045        27.4031 
  28   0.0000       1.013827        27.5876 
  29   0.0000       1.015001        27.6196 
  30   0.0000       1.015856        27.6429 
  31   0.0000       1.121144        30.5079 
  32   0.0000       1.144651        31.1475 
  33   0.0000       1.153073        31.3767 
  34   0.0000       1.283554        34.9273 
  35   0.0000       1.709256        46.5112 
  36   0.0000       1.711731        46.5786 
  37   0.0000       2.147160        58.4272 
  38   0.0000       2.369639        64.4812 
  39   0.0000       6.873774       187.0449 
  40   0.0000       6.894580       187.6110 
  41   0.0000       6.976791       189.8481 
  42   0.0000      13.018421       354.2492 

                 SPIN DOWN ORBITALS
  NO   OCC          E(Eh)            E(eV) 
   0   1.0000     -78.444795     -2134.5914 
   1   1.0000      -7.255963      -197.4448 
   2   1.0000      -5.368227      -146.0769 
   3   1.0000      -5.367280      -146.0511 
   4   1.0000      -5.357154      -145.7756 
   5   1.0000      -0.968882       -26.3646 
   6   1.0000      -0.700426       -19.0596 
   7   0.0000      -0.419068       -11.4034 
   8   0.0000      -0.385656       -10.4942 
   9   0.0000      -0.178671        -4.8619 
  10   0.0000      -0.058852        -1.6014 
  11   0.0000      -0.003445        -0.0937 
  12   0.0000       0.002963         0.0806 
  13   0.0000       0.016715         0.4548 
  14   0.0000       0.026681         0.7260 
  15   0.0000       0.029508         0.8030 
  16   0.0000       0.029753         0.8096 
  17   0.0000       0.031538         0.8582 
  18   0.0000       0.208070         5.6619 
  19   0.0000       0.320548         8.7225 
  20   0.0000       0.911935        24.8150 
  21   0.0000       0.913095        24.8466 
  22   0.0000       0.916251        24.9324 
  23   0.0000       0.931286        25.3416 
  24   0.0000       0.932767        25.3819 
  25   0.0000       0.934983        25.4422 
  26   0.0000       0.950059        25.8524 
  27   0.0000       1.037518        28.2323 
  28   0.0000       1.038893        28.2697 
  29   0.0000       1.039042        28.2738 
  30   0.0000       1.039113        28.2757 
  31   0.0000       1.150467        31.3058 
  32   0.0000       1.151966        31.3466 
  33   0.0000       1.186099        32.2754 
  34   0.0000       1.302853        35.4524 
  35   0.0000       1.713611        46.6297 
  36   0.0000       1.722705        46.8772 
  37   0.0000       2.170623        59.0656 
  38   0.0000       2.381866        64.8139 
  39   0.0000       6.912218       188.0910 
  40   0.0000       6.937278       188.7729 
  41   0.0000       6.997005       190.3982 
  42   0.0000      13.025975       354.4548 

                    ********************************
                    * MULLIKEN POPULATION ANALYSIS *
                    ********************************

--------------------------------------------
MULLIKEN ATOMIC CHARGES AND SPIN POPULATIONS
--------------------------------------------
   0 P :    0.785283    1.009097
   1 H :    0.214717   -0.009097
Sum of atomic charges         :    1.0000000
Sum of atomic spin populations:    1.0000000

-----------------------------------------------------
MULLIKEN REDUCED ORBITAL CHARGES AND SPIN POPULATIONS
-----------------------------------------------------
CHARGE
  0 P s       :     5.938499  s :     5.938499
      pz      :     2.995865  p :     8.205015
      px      :     3.193303
      py      :     2.015846
      dz2     :     0.016670  d :     0.068112
      dxz     :     0.001686
      dyz     :     0.000023
      dx2y2   :     0.047157
      dxy     :     0.002576
      f0      :     0.000021  f :     0.003092
      f+1     :     0.001918
      f-1     :     0.000026
      f+2     :     0.000012
      f-2     :     0.000001
      f+3     :     0.000987
      f-3     :     0.000126
  1 H s       :     0.769810  s :     0.769810
      pz      :     0.002392  p :     0.015472
      px      :     0.012900
      py      :     0.000180

SPIN
  0 P s       :     0.010462  s :     0.010462
      pz      :     0.995874  p :     1.001518
      px      :     0.005600
      py      :     0.000045
      dz2     :    -0.000750  d :    -0.001790
      dxz     :     0.001684
      dyz     :     0.000023
      dx2y2   :    -0.002600
      dxy     :    -0.000147
      f0      :     0.000021  f :    -0.001093
      f+1     :    -0.000679
      f-1     :    -0.000009
      f+2     :     0.000012
      f-2     :     0.000001
      f+3     :    -0.000388
      f-3     :    -0.000051
  1 H s       :    -0.011790  s :    -0.011790
      pz      :     0.002386  p :     0.002693
      px      :     0.000303
      py      :     0.000004


                     *******************************
                     * LOEWDIN POPULATION ANALYSIS *
                     *******************************

-------------------------------------------
LOEWDIN ATOMIC CHARGES AND SPIN POPULATIONS
-------------------------------------------
   0 P :    0.961865    1.006362
   1 H :    0.038135   -0.006362

----------------------------------------------------
LOEWDIN REDUCED ORBITAL CHARGES AND SPIN POPULATIONS
----------------------------------------------------
CHARGE
  0 P s       :     5.733448  s :     5.733448
      pz      :     2.990537  p :     8.220013
      px      :     3.213356
      py      :     2.016120
      dz2     :     0.018713  d :     0.077916
      dxz     :     0.001264
      dyz     :     0.000017
      dx2y2   :     0.054922
      dxy     :     0.003000
      f0      :     0.000001  f :     0.006758
      f+1     :     0.003090
      f-1     :     0.000041
      f+2     :     0.000085
      f-2     :     0.000005
      f+3     :     0.003135
      f-3     :     0.000402
  1 H s       :     0.906446  s :     0.906446
      pz      :     0.008092  p :     0.055418
      px      :     0.046704
      py      :     0.000622

SPIN
  0 P s       :     0.011994  s :     0.011994
      pz      :     0.990540  p :     0.995028
      px      :     0.004458
      py      :     0.000029
      dz2     :     0.000815  d :    -0.000027
      dxz     :     0.001262
      dyz     :     0.000017
      dx2y2   :    -0.002008
      dxy     :    -0.000113
      f0      :     0.000000  f :    -0.000633
      f+1     :    -0.000446
      f-1     :    -0.000006
      f+2     :     0.000085
      f-2     :     0.000005
      f+3     :    -0.000239
      f-3     :    -0.000031
  1 H s       :    -0.015642  s :    -0.015642
      pz      :     0.008091  p :     0.009281
      px      :     0.001173
      py      :     0.000016


                      *****************************
                      * MAYER POPULATION ANALYSIS *
                      *****************************

  NA   - Mulliken gross atomic population
  ZA   - Total nuclear charge
  QA   - Mulliken gross atomic charge
  VA   - Mayer's total valence
  BVA  - Mayer's bonded valence
  FA   - Mayer's free valence

  ATOM       NA         ZA         QA         VA         BVA        FA
  0 P     14.2147    15.0000     0.7853     1.9238     0.9219     1.0019
  1 H      0.7853     1.0000     0.2147     0.9221     0.9219     0.0002

  Mayer bond orders larger than 0.100000
B(  0-P ,  1-H ) :   0.9219 

-------
TIMINGS
-------

Total SCF time: 0 days 0 hours 0 min 6 sec 

Total time                  ....       6.422 sec
Sum of individual times     ....       6.032 sec  ( 93.9%)

Fock matrix formation       ....       5.377 sec  ( 83.7%)
  Split-RI-J                ....       0.410 sec  (  7.6% of F)
  Chain of spheres X        ....       2.343 sec  ( 43.6% of F)
  XC integration            ....       2.543 sec  ( 47.3% of F)
    Basis function eval.    ....       0.291 sec  ( 11.4% of XC)
    Density eval.           ....       0.725 sec  ( 28.5% of XC)
    XC-Functional eval.     ....       0.693 sec  ( 27.3% of XC)
    XC-Potential eval.      ....       0.586 sec  ( 23.0% of XC)
Diagonalization             ....       0.018 sec  (  0.3%)
Density matrix formation    ....       0.001 sec  (  0.0%)
Population analysis         ....       0.035 sec  (  0.5%)
Initial guess               ....       0.074 sec  (  1.2%)
Orbital Transformation      ....       0.000 sec  (  0.0%)
Orbital Orthonormalization  ....       0.000 sec  (  0.0%)
DIIS solution               ....       0.227 sec  (  3.5%)
Grid generation             ....       0.300 sec  (  4.7%)

Maximum memory used throughout the entire SCF-calculation: 60.6 MB

-------------------------   --------------------
FINAL SINGLE POINT ENERGY      -341.489161669140
-------------------------   --------------------

------------------------------------------------------------------------------
                         ORCA SCF GRADIENT CALCULATION
------------------------------------------------------------------------------

 ... reading COSX grid (gridx3)
Gradient of the Kohn-Sham DFT energy:
Kohn-Sham wavefunction type      ... UKS
Hartree-Fock exchange scaling    ...    0.540
Number of operators              ...    2
Number of atoms                  ...    2
Basis set dimensions             ...   43
Integral neglect threshold       ... 2.5e-11
Integral primitive cutoff        ... 2.5e-12
SHARK Integral package           ... ON

Nuc. rep. gradient       (SHARK) ... done (  0.0 sec)
HCore & Overlap gradient (SHARK) ... done (  0.0 sec)
RI-J gradient            (SHARK) ... done (  0.2 sec)
COSX-gradient                    ... done (  0.5 sec)
Exchange-correlation gradient    ... done

------------------
CARTESIAN GRADIENT
------------------

   1   P   :    0.005583909   -0.000570137   -0.000000003
   2   H   :   -0.005575885    0.000609202    0.000000007

Difference to translation invariance:
           :    0.0000080245    0.0000390655    0.0000000037

Difference to rotation invariance:
           :    0.0000000010    0.0000000104   -0.0003965527

Norm of the cartesian gradient     ...    0.0079351570
RMS gradient                       ...    0.0032395143
MAX gradient                       ...    0.0055839092

-------
TIMINGS
-------

Total SCF gradient time            ...        1.349 sec

One electron gradient       ....       0.017 sec  (  1.3%)
RI-J Coulomb gradient       ....       0.161 sec  ( 11.9%)
COSX gradient               ....       0.468 sec  ( 34.7%)
XC gradient                 ....       0.469 sec  ( 34.8%)

Maximum memory used throughout the entire SCFGRAD-calculation: 35.6 MB
------------------------------------------------------------------------------
                         ORCA GEOMETRY RELAXATION STEP
------------------------------------------------------------------------------

Reading the OPT-File                    .... done
Getting information on internals        .... done
Copying old internal coords+grads       .... done
Making the new internal coordinates     .... (new redundants).... done
Validating the new internal coordinates .... (new redundants).... done
Calculating the B-matrix                .... done
Calculating the G,G- and P matrices     .... done
Transforming gradient to internals      .... done
Projecting the internal gradient        .... done
Number of atoms                         ....   2
Number of internal coordinates          ....   1
Current Energy                          ....  -341.489161669 Eh
Current gradient norm                   ....     0.007935157 Eh/bohr
Maximum allowed component of the step   ....  0.300
Current trust radius                    ....  0.300
Evaluating the initial hessian          ....  (Almloef) done
Projecting the Hessian                  .... done
Forming the augmented Hessian           .... done
Diagonalizing the augmented Hessian     .... done
Last element of RFO vector              ....  0.999888264
Lowest eigenvalues of augmented Hessian:
 -0.000083881
Length of the computed step             ....  0.014950204
The final length of the internal step   ....  0.014950204
Converting the step to cartesian space:
 Initial RMS(Int)=    0.0149502037
Transforming coordinates:
 Iter   0:  RMS(Cart)=    0.0043157521 RMS(Int)=    0.0149502037
 Iter   1:  RMS(Cart)=    0.0000000000 RMS(Int)=    0.0000000000
done
Storing new coordinates                 .... done

                                .--------------------.
          ----------------------|Geometry convergence|-------------------------
          Item                value                   Tolerance       Converged
          ---------------------------------------------------------------------
          RMS gradient        0.0056107146            0.0001000000      NO
          MAX gradient        0.0056107146            0.0003000000      NO
          RMS step            0.0149502037            0.0020000000      NO
          MAX step            0.0149502037            0.0040000000      NO
          ........................................................
          Max(Bonds)      0.0079      Max(Angles)    0.00
          Max(Dihed)        0.00      Max(Improp)    0.00
          ---------------------------------------------------------------------

The optimization has not yet converged - more geometry cycles are needed


    ---------------------------------------------------------------------------
                         Redundant Internal Coordinates
                            (Angstroem and degrees)

        Definition                    Value    dE/dq     Step     New-Value
    ----------------------------------------------------------------------------
     1. B(H   1,P   0)                1.4088 -0.005611  0.0079    1.4167   
    ----------------------------------------------------------------------------

         *************************************************************
         *                GEOMETRY OPTIMIZATION CYCLE   2            *
         *************************************************************
---------------------------------
CARTESIAN COORDINATES (ANGSTROEM)
---------------------------------
  P     -4.078300    0.443803    0.000000
  H     -2.670900    0.281537    0.000000

----------------------------
CARTESIAN COORDINATES (A.U.)
----------------------------
  NO LB      ZA    FRAG     MASS         X           Y           Z
   0 P    15.0000    0    30.974   -7.706869    0.838666    0.000000
   1 H     1.0000    0     1.008   -5.047270    0.532028    0.000000

--------------------------------
INTERNAL COORDINATES (ANGSTROEM)
--------------------------------
 P      0   0   0     0.000000000000     0.00000000     0.00000000
 H      1   0   0     1.416722600760     0.00000000     0.00000000

---------------------------
INTERNAL COORDINATES (A.U.)
---------------------------
 P      0   0   0     0.000000000000     0.00000000     0.00000000
 H      1   0   0     2.677217723174     0.00000000     0.00000000

------------------------------------------------------------------------------
                   ___                                                        
                  /   \      - P O W E R E D   B Y -                         
                 /     \                                                     
                 |  |  |   _    _      __       _____    __    __             
                 |  |  |  | |  | |    /  \     |  _  \  |  |  /  |          
                  \  \/   | |  | |   /    \    | | | |  |  | /  /          
                 / \  \   | |__| |  /  /\  \   | |_| |  |  |/  /          
                |  |  |   |  __  | /  /__\  \  |    /   |      \           
                |  |  |   | |  | | |   __   |  |    \   |  |\   \          
                \     /   | |  | | |  |  |  |  | |\  \  |  | \   \       
                 \___/    |_|  |_| |__|  |__|  |_| \__\ |__|  \__/        
                                                                              
                      - O R C A' S   B I G   F R I E N D -                    
                                      &                                       
                       - I N T E G R A L  F E E D E R -                       
                                                                              
 v1 FN, 2020, v2 2021                                                         
------------------------------------------------------------------------------


Reading SHARK input file ph+.SHARKINP.tmp ... ok
----------------------
SHARK INTEGRAL PACKAGE
----------------------

Number of atoms                             ...      2
Number of basis functions                   ...     43
Number of shells                            ...     17
Maximum angular momentum                    ...      3
Integral batch strategy                     ... SHARK/LIBINT Hybrid
RI-J (if used) integral strategy            ... SPLIT-RIJ (Revised 2003 algorithm where possible)
Printlevel                                  ...      1
Contraction scheme used                     ... SEGMENTED contraction
Coulomb Range Separation                    ... NOT USED
Exchange Range Separation                   ... NOT USED
Finite Nucleus Model                        ... NOT USED
Auxiliary Coulomb fitting basis             ... AVAILABLE
   # of basis functions in Aux-J            ...     62
   # of shells in Aux-J                     ...     22
   Maximum angular momentum in Aux-J        ...      4
Auxiliary J/K fitting basis                 ... NOT available
Auxiliary Correlation fitting basis         ... NOT available
Auxiliary 'external' fitting basis          ... NOT available
Integral threshold                          ...     2.500000e-11
Primitive cut-off                           ...     2.500000e-12
Primitive pair pre-selection threshold      ...     2.500000e-12

Calculating pre-screening integrals         ... done (  0.0 sec) Dimension = 17
Organizing shell pair data                  ... done (  0.0 sec)
Shell pair information
Total number of shell pairs                 ...       153
Shell pairs after pre-screening             ...       153
Total number of primitive shell pairs       ...       600
Primitive shell pairs kept                  ...       573
          la=0 lb=0:     36 shell pairs
          la=1 lb=0:     48 shell pairs
          la=1 lb=1:     21 shell pairs
          la=2 lb=0:     16 shell pairs
          la=2 lb=1:     12 shell pairs
          la=2 lb=2:      3 shell pairs
          la=3 lb=0:      8 shell pairs
          la=3 lb=1:      6 shell pairs
          la=3 lb=2:      2 shell pairs
          la=3 lb=3:      1 shell pairs

Calculating one electron integrals          ... done (  0.0 sec)
Calculating RI/J V-Matrix + Cholesky decomp.... done (  0.0 sec)
Calculating Nuclear repulsion               ... done (  0.0 sec) ENN=      5.602831577784 Eh

SHARK setup successfully completed in   0.2 seconds

Maximum memory used throughout the entire GTOINT-calculation: 15.2 MB

Diagonalization of the overlap matrix:
Smallest eigenvalue                        ... 2.132e-02
Time for diagonalization                   ...    0.001 sec
Threshold for overlap eigenvalues          ... 1.000e-08
Number of eigenvalues below threshold      ... 0
Time for construction of square roots      ...    0.002 sec
Total time needed                          ...    0.003 sec

-------------------
DFT GRID GENERATION
-------------------

General Integration Accuracy     IntAcc      ... 4.388
Radial Grid Type                 RadialGrid  ... OptM3 with GC (2021)
Angular Grid (max. ang.)         AngularGrid ... 4 (Lebedev-302)
Angular grid pruning method      GridPruning ... 4 (adaptive)
Weight generation scheme         WeightScheme... Becke
Basis function cutoff            BFCut       ... 1.0000e-11
Integration weight cutoff        WCut        ... 1.0000e-14
Angular grids for H and He will be reduced by one unit
Partially contracted basis set               ... off
Rotationally invariant grid construction     ... off

Total number of grid points                  ...    10693
Total number of batches                      ...      168
Average number of points per batch           ...       63
Average number of grid points per atom       ...     5347
Time for grid setup =    0.108 sec

--------------------
COSX GRID GENERATION
--------------------

GRIDX 1
-------
General Integration Accuracy     IntAcc      ... 3.816
Radial Grid Type                 RadialGrid  ... OptM3 with GC (2021)
Angular Grid (max. ang.)         AngularGrid ... 1 (Lebedev-50)
Angular grid pruning method      GridPruning ... 4 (adaptive)
Weight generation scheme         WeightScheme... Becke
Basis function cutoff            BFCut       ... 1.0000e-11
Integration weight cutoff        WCut        ... 1.0000e-14
Angular grids for H and He will be reduced by one unit
Partially contracted basis set               ... on
Rotationally invariant grid construction     ... off

Total number of grid points                  ...     1286
Total number of batches                      ...       21
Average number of points per batch           ...       61
Average number of grid points per atom       ...      643
UseSFitting                                  ... on

GRIDX 2
-------
General Integration Accuracy     IntAcc      ... 4.020
Radial Grid Type                 RadialGrid  ... OptM3 with GC (2021)
Angular Grid (max. ang.)         AngularGrid ... 2 (Lebedev-110)
Angular grid pruning method      GridPruning ... 4 (adaptive)
Weight generation scheme         WeightScheme... Becke
Basis function cutoff            BFCut       ... 1.0000e-11
Integration weight cutoff        WCut        ... 1.0000e-14
Angular grids for H and He will be reduced by one unit
Partially contracted basis set               ... on
Rotationally invariant grid construction     ... off

Total number of grid points                  ...     2792
Total number of batches                      ...       45
Average number of points per batch           ...       62
Average number of grid points per atom       ...     1396
UseSFitting                                  ... on

GRIDX 3
-------
General Integration Accuracy     IntAcc      ... 4.338
Radial Grid Type                 RadialGrid  ... OptM3 with GC (2021)
Angular Grid (max. ang.)         AngularGrid ... 3 (Lebedev-194)
Angular grid pruning method      GridPruning ... 4 (adaptive)
Weight generation scheme         WeightScheme... Becke
Basis function cutoff            BFCut       ... 1.0000e-11
Integration weight cutoff        WCut        ... 1.0000e-14
Angular grids for H and He will be reduced by one unit
Partially contracted basis set               ... on
Rotationally invariant grid construction     ... off

Total number of grid points                  ...     6825
Total number of batches                      ...      108
Average number of points per batch           ...       63
Average number of grid points per atom       ...     3413
UseSFitting                                  ... on

Time for X-Grid setup             =    0.139 sec

--------------
SCF ITERATIONS
--------------
ITER       Energy         Delta-E        Max-DP      RMS-DP      [F,P]     Damp
               ***  Starting incremental Fock matrix formation  ***
  0   -341.4892214631   0.000000000000 0.00015453  0.00000998  0.0027910 0.7000
  1   -341.4892235441  -0.000002080943 0.00014025  0.00000902  0.0020813 0.7000
                               ***Turning on DIIS***
  2   -341.4892250760  -0.000001531953 0.00038124  0.00002371  0.0014845 0.0000
  3   -341.4892287351  -0.000003659121 0.00027015  0.00000887  0.0001352 0.0000
               *** Restarting incremental Fock matrix formation ***
                                   *** Resetting DIIS ***
  4   -341.4892286911   0.000000044056 0.00005513  0.00000210  0.0000461 0.0000
  5   -341.4892286982  -0.000000007093 0.00001312  0.00000050  0.0000142 0.0000
  6   -341.4892286988  -0.000000000662 0.00000672  0.00000031  0.0000026 0.0000
                 **** Energy Check signals convergence ****

               *****************************************************
               *                     SUCCESS                       *
               *           SCF CONVERGED AFTER   7 CYCLES          *
               *****************************************************

Old exchange energy                            =    -12.254665343 Eh
New exchange energy                            =    -12.254656359 Eh
Exchange energy change after final integration =      0.000008984 Eh
Total energy after final integration           =   -341.489219715 Eh
Final COS-X integration done in                =     0.376 sec
Total Energy       :         -341.48921971 Eh           -9292.39408 eV
  Last Energy change         ...    2.9985e-10  Tolerance :   1.0000e-08
  Last MAX-Density change    ...    0.0000e+00  Tolerance :   1.0000e-07
             **** THE GBW FILE WAS UPDATED (ph+.gbw) ****
             **** DENSITY ph+.scfp WAS UPDATED ****
             **** ENERGY FILE WAS UPDATED (ph+.en.tmp) ****
----------------------
UHF SPIN CONTAMINATION
----------------------

Warning: in a DFT calculation there is little theoretical justification to 
         calculate <S**2> as in Hartree-Fock theory. We will do it anyways
         but you should keep in mind that the values have only limited relevance

Expectation value of <S**2>     :     0.753727
Ideal value S*(S+1) for S=0.5   :     0.750000
Deviation                       :     0.003727

             **** THE GBW FILE WAS UPDATED (ph+.gbw) ****
             **** DENSITY ph+.scfp WAS UPDATED ****
Total SCF time: 0 days 0 hours 0 min 4 sec 

Maximum memory used throughout the entire SCF-calculation: 60.6 MB

-------------------------   --------------------
FINAL SINGLE POINT ENERGY      -341.489219714987
-------------------------   --------------------

------------------------------------------------------------------------------
                         ORCA SCF GRADIENT CALCULATION
------------------------------------------------------------------------------

 ... reading COSX grid (gridx3)
Gradient of the Kohn-Sham DFT energy:
Kohn-Sham wavefunction type      ... UKS
Hartree-Fock exchange scaling    ...    0.540
Number of operators              ...    2
Number of atoms                  ...    2
Basis set dimensions             ...   43
Integral neglect threshold       ... 2.5e-11
Integral primitive cutoff        ... 2.5e-12
SHARK Integral package           ... ON

Nuc. rep. gradient       (SHARK) ... done (  0.0 sec)
HCore & Overlap gradient (SHARK) ... done (  0.0 sec)
RI-J gradient            (SHARK) ... done (  0.1 sec)
COSX-gradient                    ... done (  0.4 sec)
Exchange-correlation gradient    ... done

------------------
CARTESIAN GRADIENT
------------------

   1   P   :    0.002169235   -0.000167027    0.000000016
   2   H   :   -0.002163204    0.000207120    0.000000006

Difference to translation invariance:
           :    0.0000060307    0.0000400926    0.0000000218

Difference to rotation invariance:
           :    0.0000000165    0.0000001527   -0.0004265130

Norm of the cartesian gradient     ...    0.0030750334
RMS gradient                       ...    0.0012553771
MAX gradient                       ...    0.0021692351

-------
TIMINGS
-------

Total SCF gradient time            ...        1.121 sec

One electron gradient       ....       0.013 sec  (  1.2%)
RI-J Coulomb gradient       ....       0.147 sec  ( 13.1%)
COSX gradient               ....       0.412 sec  ( 36.8%)
XC gradient                 ....       0.368 sec  ( 32.8%)

Maximum memory used throughout the entire SCFGRAD-calculation: 35.6 MB
------------------------------------------------------------------------------
                         ORCA GEOMETRY RELAXATION STEP
------------------------------------------------------------------------------

Reading the OPT-File                    .... done
Getting information on internals        .... done
Copying old internal coords+grads       .... done
Making the new internal coordinates     .... (new redundants).... done
Validating the new internal coordinates .... (new redundants).... done
Calculating the B-matrix                .... done
Calculating the G,G- and P matrices     .... done
Transforming gradient to internals      .... done
Projecting the internal gradient        .... done
Number of atoms                         ....   2
Number of internal coordinates          ....   1
Current Energy                          ....  -341.489219715 Eh
Current gradient norm                   ....     0.003075033 Eh/bohr
Maximum allowed component of the step   ....  0.300
Current trust radius                    ....  0.300
Updating the Hessian (BFGS)             .... done
Forming the augmented Hessian           .... done
Diagonalizing the augmented Hessian     .... done
Last element of RFO vector              ....  0.999955332
Lowest eigenvalues of augmented Hessian:
 -0.000020543
Length of the computed step             ....  0.009452042
The final length of the internal step   ....  0.009452042
Converting the step to cartesian space:
 Initial RMS(Int)=    0.0094520419
Transforming coordinates:
 Iter   0:  RMS(Cart)=    0.0027285695 RMS(Int)=    0.0094520419
 Iter   1:  RMS(Cart)=    0.0000000000 RMS(Int)=    0.0000000000
done
Storing new coordinates                 .... done

                                .--------------------.
          ----------------------|Geometry convergence|-------------------------
          Item                value                   Tolerance       Converged
          ---------------------------------------------------------------------
          Energy change      -0.0000580458            0.0000050000      NO
          RMS gradient        0.0021733906            0.0001000000      NO
          MAX gradient        0.0021733906            0.0003000000      NO
          RMS step            0.0094520419            0.0020000000      NO
          MAX step            0.0094520419            0.0040000000      NO
          ........................................................
          Max(Bonds)      0.0050      Max(Angles)    0.00
          Max(Dihed)        0.00      Max(Improp)    0.00
          ---------------------------------------------------------------------

The optimization has not yet converged - more geometry cycles are needed


    ---------------------------------------------------------------------------
                         Redundant Internal Coordinates
                            (Angstroem and degrees)

        Definition                    Value    dE/dq     Step     New-Value
    ----------------------------------------------------------------------------
     1. B(H   1,P   0)                1.4167 -0.002173  0.0050    1.4217   
    ----------------------------------------------------------------------------

         *************************************************************
         *                GEOMETRY OPTIMIZATION CYCLE   3            *
         *************************************************************
---------------------------------
CARTESIAN COORDINATES (ANGSTROEM)
---------------------------------
  P     -4.080784    0.444090    0.000000
  H     -2.668416    0.281250    0.000000

----------------------------
CARTESIAN COORDINATES (A.U.)
----------------------------
  NO LB      ZA    FRAG     MASS         X           Y           Z
   0 P    15.0000    0    30.974   -7.711564    0.839208    0.000000
   1 H     1.0000    0     1.008   -5.042575    0.531486    0.000000

--------------------------------
INTERNAL COORDINATES (ANGSTROEM)
--------------------------------
 P      0   0   0     0.000000000000     0.00000000     0.00000000
 H      1   0   0     1.421724405900     0.00000000     0.00000000

---------------------------
INTERNAL COORDINATES (A.U.)
---------------------------
 P      0   0   0     0.000000000000     0.00000000     0.00000000
 H      1   0   0     2.686669765064     0.00000000     0.00000000

------------------------------------------------------------------------------
                   ___                                                        
                  /   \      - P O W E R E D   B Y -                         
                 /     \                                                     
                 |  |  |   _    _      __       _____    __    __             
                 |  |  |  | |  | |    /  \     |  _  \  |  |  /  |          
                  \  \/   | |  | |   /    \    | | | |  |  | /  /          
                 / \  \   | |__| |  /  /\  \   | |_| |  |  |/  /          
                |  |  |   |  __  | /  /__\  \  |    /   |      \           
                |  |  |   | |  | | |   __   |  |    \   |  |\   \          
                \     /   | |  | | |  |  |  |  | |\  \  |  | \   \       
                 \___/    |_|  |_| |__|  |__|  |_| \__\ |__|  \__/        
                                                                              
                      - O R C A' S   B I G   F R I E N D -                    
                                      &                                       
                       - I N T E G R A L  F E E D E R -                       
                                                                              
 v1 FN, 2020, v2 2021                                                         
------------------------------------------------------------------------------


Reading SHARK input file ph+.SHARKINP.tmp ... ok
----------------------
SHARK INTEGRAL PACKAGE
----------------------

Number of atoms                             ...      2
Number of basis functions                   ...     43
Number of shells                            ...     17
Maximum angular momentum                    ...      3
Integral batch strategy                     ... SHARK/LIBINT Hybrid
RI-J (if used) integral strategy            ... SPLIT-RIJ (Revised 2003 algorithm where possible)
Printlevel                                  ...      1
Contraction scheme used                     ... SEGMENTED contraction
Coulomb Range Separation                    ... NOT USED
Exchange Range Separation                   ... NOT USED
Finite Nucleus Model                        ... NOT USED
Auxiliary Coulomb fitting basis             ... AVAILABLE
   # of basis functions in Aux-J            ...     62
   # of shells in Aux-J                     ...     22
   Maximum angular momentum in Aux-J        ...      4
Auxiliary J/K fitting basis                 ... NOT available
Auxiliary Correlation fitting basis         ... NOT available
Auxiliary 'external' fitting basis          ... NOT available
Integral threshold                          ...     2.500000e-11
Primitive cut-off                           ...     2.500000e-12
Primitive pair pre-selection threshold      ...     2.500000e-12

Calculating pre-screening integrals         ... done (  0.1 sec) Dimension = 17
Organizing shell pair data                  ... done (  0.0 sec)
Shell pair information
Total number of shell pairs                 ...       153
Shell pairs after pre-screening             ...       153
Total number of primitive shell pairs       ...       600
Primitive shell pairs kept                  ...       573
          la=0 lb=0:     36 shell pairs
          la=1 lb=0:     48 shell pairs
          la=1 lb=1:     21 shell pairs
          la=2 lb=0:     16 shell pairs
          la=2 lb=1:     12 shell pairs
          la=2 lb=2:      3 shell pairs
          la=3 lb=0:      8 shell pairs
          la=3 lb=1:      6 shell pairs
          la=3 lb=2:      2 shell pairs
          la=3 lb=3:      1 shell pairs

Calculating one electron integrals          ... done (  0.0 sec)
Calculating RI/J V-Matrix + Cholesky decomp.... done (  0.0 sec)
Calculating Nuclear repulsion               ... done (  0.0 sec) ENN=      5.583120112138 Eh

SHARK setup successfully completed in   0.2 seconds

Maximum memory used throughout the entire GTOINT-calculation: 15.2 MB

Diagonalization of the overlap matrix:
Smallest eigenvalue                        ... 2.161e-02
Time for diagonalization                   ...    0.001 sec
Threshold for overlap eigenvalues          ... 1.000e-08
Number of eigenvalues below threshold      ... 0
Time for construction of square roots      ...    0.001 sec
Total time needed                          ...    0.003 sec

-------------------
DFT GRID GENERATION
-------------------

General Integration Accuracy     IntAcc      ... 4.388
Radial Grid Type                 RadialGrid  ... OptM3 with GC (2021)
Angular Grid (max. ang.)         AngularGrid ... 4 (Lebedev-302)
Angular grid pruning method      GridPruning ... 4 (adaptive)
Weight generation scheme         WeightScheme... Becke
Basis function cutoff            BFCut       ... 1.0000e-11
Integration weight cutoff        WCut        ... 1.0000e-14
Angular grids for H and He will be reduced by one unit
Partially contracted basis set               ... off
Rotationally invariant grid construction     ... off

Total number of grid points                  ...    10693
Total number of batches                      ...      168
Average number of points per batch           ...       63
Average number of grid points per atom       ...     5347
Time for grid setup =    0.169 sec

--------------------
COSX GRID GENERATION
--------------------

GRIDX 1
-------
General Integration Accuracy     IntAcc      ... 3.816
Radial Grid Type                 RadialGrid  ... OptM3 with GC (2021)
Angular Grid (max. ang.)         AngularGrid ... 1 (Lebedev-50)
Angular grid pruning method      GridPruning ... 4 (adaptive)
Weight generation scheme         WeightScheme... Becke
Basis function cutoff            BFCut       ... 1.0000e-11
Integration weight cutoff        WCut        ... 1.0000e-14
Angular grids for H and He will be reduced by one unit
Partially contracted basis set               ... on
Rotationally invariant grid construction     ... off

Total number of grid points                  ...     1286
Total number of batches                      ...       21
Average number of points per batch           ...       61
Average number of grid points per atom       ...      643
UseSFitting                                  ... on

GRIDX 2
-------
General Integration Accuracy     IntAcc      ... 4.020
Radial Grid Type                 RadialGrid  ... OptM3 with GC (2021)
Angular Grid (max. ang.)         AngularGrid ... 2 (Lebedev-110)
Angular grid pruning method      GridPruning ... 4 (adaptive)
Weight generation scheme         WeightScheme... Becke
Basis function cutoff            BFCut       ... 1.0000e-11
Integration weight cutoff        WCut        ... 1.0000e-14
Angular grids for H and He will be reduced by one unit
Partially contracted basis set               ... on
Rotationally invariant grid construction     ... off

Total number of grid points                  ...     2792
Total number of batches                      ...       45
Average number of points per batch           ...       62
Average number of grid points per atom       ...     1396
UseSFitting                                  ... on

GRIDX 3
-------
General Integration Accuracy     IntAcc      ... 4.338
Radial Grid Type                 RadialGrid  ... OptM3 with GC (2021)
Angular Grid (max. ang.)         AngularGrid ... 3 (Lebedev-194)
Angular grid pruning method      GridPruning ... 4 (adaptive)
Weight generation scheme         WeightScheme... Becke
Basis function cutoff            BFCut       ... 1.0000e-11
Integration weight cutoff        WCut        ... 1.0000e-14
Angular grids for H and He will be reduced by one unit
Partially contracted basis set               ... on
Rotationally invariant grid construction     ... off

Total number of grid points                  ...     6825
Total number of batches                      ...      108
Average number of points per batch           ...       63
Average number of grid points per atom       ...     3413
UseSFitting                                  ... on

Time for X-Grid setup             =    0.272 sec

--------------
SCF ITERATIONS
--------------
ITER       Energy         Delta-E        Max-DP      RMS-DP      [F,P]     Damp
               ***  Starting incremental Fock matrix formation  ***
  0   -341.4892361888   0.000000000000 0.00009685  0.00000626  0.0017527 0.7000
  1   -341.4892370196  -0.000000830757 0.00008795  0.00000566  0.0013074 0.7000
                               ***Turning on DIIS***
  2   -341.4892376326  -0.000000612994 0.00024797  0.00001539  0.0009327 0.0000
               *** Restarting incremental Fock matrix formation ***
                                   *** Resetting DIIS ***
  3   -341.4892390140  -0.000001381415 0.00016113  0.00000519  0.0000764 0.0000
  4   -341.4892390424  -0.000000028349 0.00002132  0.00000090  0.0000282 0.0000
  5   -341.4892390444  -0.000000002009 0.00000955  0.00000046  0.0000054 0.0000
                            ***DIIS convergence achieved***

               *****************************************************
               *                     SUCCESS                       *
               *           SCF CONVERGED AFTER   6 CYCLES          *
               *****************************************************

Old exchange energy                            =    -12.253840030 Eh
New exchange energy                            =    -12.253831295 Eh
Exchange energy change after final integration =      0.000008734 Eh
Total energy after final integration           =   -341.489230311 Eh
Final COS-X integration done in                =     0.383 sec
Total Energy       :         -341.48923031 Eh           -9292.39437 eV
  Last Energy change         ...   -4.6771e-10  Tolerance :   1.0000e-08
  Last MAX-Density change    ...    0.0000e+00  Tolerance :   1.0000e-07
             **** THE GBW FILE WAS UPDATED (ph+.gbw) ****
             **** DENSITY ph+.scfp WAS UPDATED ****
             **** ENERGY FILE WAS UPDATED (ph+.en.tmp) ****
----------------------
UHF SPIN CONTAMINATION
----------------------

Warning: in a DFT calculation there is little theoretical justification to 
         calculate <S**2> as in Hartree-Fock theory. We will do it anyways
         but you should keep in mind that the values have only limited relevance

Expectation value of <S**2>     :     0.753733
Ideal value S*(S+1) for S=0.5   :     0.750000
Deviation                       :     0.003733

             **** THE GBW FILE WAS UPDATED (ph+.gbw) ****
             **** DENSITY ph+.scfp WAS UPDATED ****
Total SCF time: 0 days 0 hours 0 min 4 sec 

Maximum memory used throughout the entire SCF-calculation: 60.6 MB

-------------------------   --------------------
FINAL SINGLE POINT ENERGY      -341.489230310502
-------------------------   --------------------

------------------------------------------------------------------------------
                         ORCA SCF GRADIENT CALCULATION
------------------------------------------------------------------------------

 ... reading COSX grid (gridx3)
Gradient of the Kohn-Sham DFT energy:
Kohn-Sham wavefunction type      ... UKS
Hartree-Fock exchange scaling    ...    0.540
Number of operators              ...    2
Number of atoms                  ...    2
Basis set dimensions             ...   43
Integral neglect threshold       ... 2.5e-11
Integral primitive cutoff        ... 2.5e-12
SHARK Integral package           ... ON

Nuc. rep. gradient       (SHARK) ... done (  0.0 sec)
HCore & Overlap gradient (SHARK) ... done (  0.0 sec)
RI-J gradient            (SHARK) ... done (  0.1 sec)
COSX-gradient                    ... done (  0.4 sec)
Exchange-correlation gradient    ... done

------------------
CARTESIAN GRADIENT
------------------

   1   P   :    0.000081751    0.000078906    0.000000001
   2   H   :   -0.000077211   -0.000038174    0.000000005

Difference to translation invariance:
           :    0.0000045405    0.0000407319    0.0000000061

Difference to rotation invariance:
           :    0.0000000037    0.0000000343   -0.0004435614

Norm of the cartesian gradient     ...    0.0001425767
RMS gradient                       ...    0.0000582067
MAX gradient                       ...    0.0000817513

-------
TIMINGS
-------

Total SCF gradient time            ...        1.094 sec

One electron gradient       ....       0.010 sec  (  0.9%)
RI-J Coulomb gradient       ....       0.123 sec  ( 11.2%)
COSX gradient               ....       0.405 sec  ( 37.0%)
XC gradient                 ....       0.366 sec  ( 33.5%)

Maximum memory used throughout the entire SCFGRAD-calculation: 35.6 MB
------------------------------------------------------------------------------
                         ORCA GEOMETRY RELAXATION STEP
------------------------------------------------------------------------------

Reading the OPT-File                    .... done
Getting information on internals        .... done
Copying old internal coords+grads       .... done
Making the new internal coordinates     .... (new redundants).... done
[...]
  29   0.0000       1.039221        28.2786 
  30   0.0000       1.039374        28.2828 
  31   0.0000       1.151213        31.3261 
  32   0.0000       1.152151        31.3516 
  33   0.0000       1.186199        32.2781 
  34   0.0000       1.302740        35.4494 
  35   0.0000       1.704622        46.3851 
  36   0.0000       1.713814        46.6353 
  37   0.0000       2.160261        58.7837 
  38   0.0000       2.374742        64.6200 
  39   0.0000       6.912066       188.0869 
  40   0.0000       6.937158       188.7697 
  41   0.0000       6.992073       190.2640 
  42   0.0000      12.998140       353.6974 

                    ********************************
                    * MULLIKEN POPULATION ANALYSIS *
                    ********************************

--------------------------------------------
MULLIKEN ATOMIC CHARGES AND SPIN POPULATIONS
--------------------------------------------
   0 P :    0.783671    1.010061
   1 H :    0.216329   -0.010061
Sum of atomic charges         :    1.0000000
Sum of atomic spin populations:    1.0000000

-----------------------------------------------------
MULLIKEN REDUCED ORBITAL CHARGES AND SPIN POPULATIONS
-----------------------------------------------------
CHARGE
  0 P s       :     5.939906  s :     5.939906
      pz      :     2.996002  p :     8.205822
      px      :     3.193970
      py      :     2.015850
      dz2     :     0.016548  d :     0.067544
      dxz     :     0.001635
      dyz     :     0.000022
      dx2y2   :     0.046785
      dxy     :     0.002555
      f0      :     0.000020  f :     0.003057
      f+1     :     0.001900
      f-1     :     0.000026
      f+2     :     0.000013
      f-2     :     0.000001
      f+3     :     0.000973
      f-3     :     0.000124
  1 H s       :     0.768392  s :     0.768392
      pz      :     0.002307  p :     0.015279
      px      :     0.012794
      py      :     0.000178

SPIN
  0 P s       :     0.010386  s :     0.010386
      pz      :     0.996010  p :     1.002578
      px      :     0.006518
      py      :     0.000050
      dz2     :    -0.000752  d :    -0.001828
      dxz     :     0.001633
      dyz     :     0.000022
      dx2y2   :    -0.002586
      dxy     :    -0.000146
      f0      :     0.000020  f :    -0.001074
      f+1     :    -0.000668
      f-1     :    -0.000009
      f+2     :     0.000013
      f-2     :     0.000001
      f+3     :    -0.000381
      f-3     :    -0.000050
  1 H s       :    -0.012672  s :    -0.012672
      pz      :     0.002301  p :     0.002611
      px      :     0.000306
      py      :     0.000004


                     *******************************
                     * LOEWDIN POPULATION ANALYSIS *
                     *******************************

-------------------------------------------
LOEWDIN ATOMIC CHARGES AND SPIN POPULATIONS
-------------------------------------------
   0 P :    0.956763    1.007352
   1 H :    0.043237   -0.007352

----------------------------------------------------
LOEWDIN REDUCED ORBITAL CHARGES AND SPIN POPULATIONS
----------------------------------------------------
CHARGE
  0 P s       :     5.740466  s :     5.740466
      pz      :     2.990955  p :     8.219064
      px      :     3.212012
      py      :     2.016097
      dz2     :     0.018530  d :     0.077078
      dxz     :     0.001237
      dyz     :     0.000017
      dx2y2   :     0.054327
      dxy     :     0.002966
      f0      :     0.000001  f :     0.006630
      f+1     :     0.003037
      f-1     :     0.000041
      f+2     :     0.000082
      f-2     :     0.000004
      f+3     :     0.003071
      f-3     :     0.000394
  1 H s       :     0.902518  s :     0.902518
      pz      :     0.007703  p :     0.054245
      px      :     0.045930
      py      :     0.000612

SPIN
  0 P s       :     0.011936  s :     0.011936
      pz      :     0.990958  p :     0.996197
      px      :     0.005207
      py      :     0.000032
      dz2     :     0.000766  d :    -0.000145
      dxz     :     0.001235
      dyz     :     0.000017
      dx2y2   :    -0.002047
      dxy     :    -0.000115
      f0      :     0.000000  f :    -0.000636
      f+1     :    -0.000443
      f-1     :    -0.000006
      f+2     :     0.000082
      f-2     :     0.000004
      f+3     :    -0.000242
      f-3     :    -0.000032
  1 H s       :    -0.016233  s :    -0.016233
      pz      :     0.007703  p :     0.008881
      px      :     0.001161
      py      :     0.000016


                      *****************************
                      * MAYER POPULATION ANALYSIS *
                      *****************************

  NA   - Mulliken gross atomic population
  ZA   - Total nuclear charge
  QA   - Mulliken gross atomic charge
  VA   - Mayer's total valence
  BVA  - Mayer's bonded valence
  FA   - Mayer's free valence

  ATOM       NA         ZA         QA         VA         BVA        FA
  0 P     14.2163    15.0000     0.7837     1.9241     0.9220     1.0021
  1 H      0.7837     1.0000     0.2163     0.9222     0.9220     0.0002

  Mayer bond orders larger than 0.100000
B(  0-P ,  1-H ) :   0.9220 

-------
TIMINGS
-------

Total SCF time: 0 days 0 hours 0 min 2 sec 

Total time                  ....       2.870 sec
Sum of individual times     ....       2.424 sec  ( 84.5%)

Fock matrix formation       ....       2.117 sec  ( 73.8%)
  Split-RI-J                ....       0.237 sec  ( 11.2% of F)
  Chain of spheres X        ....       1.065 sec  ( 50.3% of F)
  XC integration            ....       0.819 sec  ( 38.7% of F)
    Basis function eval.    ....       0.101 sec  ( 12.3% of XC)
    Density eval.           ....       0.231 sec  ( 28.2% of XC)
    XC-Functional eval.     ....       0.212 sec  ( 25.9% of XC)
    XC-Potential eval.      ....       0.167 sec  ( 20.4% of XC)
Diagonalization             ....       0.016 sec  (  0.6%)
Density matrix formation    ....       0.000 sec  (  0.0%)
Population analysis         ....       0.028 sec  (  1.0%)
Initial guess               ....       0.003 sec  (  0.1%)
Orbital Transformation      ....       0.000 sec  (  0.0%)
Orbital Orthonormalization  ....       0.000 sec  (  0.0%)
DIIS solution               ....       0.002 sec  (  0.1%)
Grid generation             ....       0.258 sec  (  9.0%)

Maximum memory used throughout the entire SCF-calculation: 60.6 MB

-------------------------   --------------------
FINAL SINGLE POINT ENERGY      -341.489230323439
-------------------------   --------------------

                                *** OPTIMIZATION RUN DONE ***

                            ***************************************
                            *     ORCA property calculations      *
                            ***************************************

                                    ---------------------
                                    Active property flags
                                    ---------------------
   (+) Dipole Moment


------------------------------------------------------------------------------
                       ORCA ELECTRIC PROPERTIES CALCULATION
------------------------------------------------------------------------------

Dipole Moment Calculation                       ... on
Quadrupole Moment Calculation                   ... off
Polarizability Calculation                      ... off
GBWName                                         ... ph+.gbw
Electron density                                ... ph+.scfp
The origin for moment calculation is the CENTER OF MASS  = (-7.627595,  0.829526  0.000000)

-------------
DIPOLE MOMENT
-------------
                                X             Y             Z
Electronic contribution:     -0.97771       0.11266      -0.00000
Nuclear contribution   :      1.32322      -0.15256       0.00000
                        -----------------------------------------
Total Dipole Moment    :      0.34551      -0.03990      -0.00000
                        -----------------------------------------
Magnitude (a.u.)       :      0.34781
Magnitude (Debye)      :      0.88406



--------------------
Rotational spectrum 
--------------------
 
Rotational constants in cm-1:     0.000000     8.541001     8.541001 
Rotational constants in MHz :     0.000000 256052.773149 256052.773149 

 Dipole components along the rotational axes: 
x,y,z [a.u.] :    -0.347810    -0.000000    -0.000067 
x,y,z [Debye]:    -0.884063    -0.000000    -0.000171 

 

-------------------------------------------------------------------------------
                               ORCA SCF HESSIAN
-------------------------------------------------------------------------------

                   --------- SHARK INITIALIZATION DONE ---------

Hessian of the Kohn-Sham DFT energy:
Kohn-Sham wavefunction type                      ... UKS
Hartree-Fock exchange scaling                    ...    0.540
Number of operators                              ...    2
Number of atoms                                  ...    2
Basis set dimensions                             ...   43
Integral neglect threshold                       ... 2.5e-11
Integral primitive cutoff                        ... 2.5e-12

Setting up DFT Hessian calculations              ... 

HESS GRID
---------

General Integration Accuracy     IntAcc      ... 4.629
Radial Grid Type                 RadialGrid  ... OptM3 with GC (2021)
Angular Grid (max. ang.)         AngularGrid ... 5 (Lebedev-434)
Angular grid pruning method      GridPruning ... 4 (adaptive)
Weight generation scheme         WeightScheme... Becke
Basis function cutoff            BFCut       ... 1.0000e-11
Integration weight cutoff        WCut        ... 1.0000e-14
Angular grids for H and He will be reduced by one unit
Partially contracted basis set               ... off
Rotationally invariant grid construction     ... off

Total number of grid points                  ...    15717
Total number of batches                      ...      247
Average number of points per batch           ...       63
Average number of grid points per atom       ...     7859

Building densities                               ... done   (      0.0 sec)
Calculating rho(r) on the grid                   ... done   (      0.2 sec)
Building xc-kernel on the grid                   ... done   (      0.4 sec)
                                                     done   (      0.8 sec)

Nuclear repulsion Hessian  (SHARK)               ... done   (      0.0 sec)

----------------------------------------------
Forming right-hand sides of CP-SCF equations     ...
----------------------------------------------
One electron integral derivatives  (SHARK)       ... done   (      0.0 sec)
Transforming the overlap derivative matrices     ... done   (      0.0 sec)
Making the Q(x) pseudodensities                  ... done   (      0.0 sec)
Adding the E*S(x)*S(y) terms to the Hessian      ... done   (      0.0 sec)
Calculating energy weighted overlap derivatives  ... done   (      0.3 sec)
Two electron integral derivatives (SHARK-RI)     ... done   (      0.5 sec)
Exchange-correlation integral derivatives        ... done   (      3.5 sec)
tr(F(y)Q(x)) contribution to the Hessian         ... done   (      0.0 sec)
Response fock operator R(S(x)) (SHARK-RIJCOSX)   ... done   (      0.5 sec)
XC Response fock operator R(S(x))                ... done   (      0.8 sec)
tr(F(y)S(x)) contribution to the Hessian         ... done   (      0.0 sec)
Transforming and finalizing RHSs                 ... done   (      0.0 sec)

----------------------------------------------
Solving the CP-SCF equations (RIJCOSX)           ...
----------------------------------------------
     CP-SCF ITERATION   0:   9.5743e-02 (   0.4 sec   0/  6 done)
     CP-SCF ITERATION   1:   2.0262e-02 (   0.4 sec   0/  6 done)
     CP-SCF ITERATION   2:   7.2084e-03 (   0.4 sec   0/  6 done)
     CP-SCF ITERATION   3:   3.2507e-03 (   0.4 sec   0/  6 done)
     CP-SCF ITERATION   4:   4.8177e-03 (   0.3 sec   0/  6 done)
     CP-SCF ITERATION   5:   2.5050e-02 (   0.3 sec   0/  6 done)
     CP-SCF ITERATION   6:   2.0097e-03 (   0.3 sec   2/  6 done)
     CP-SCF ITERATION   7:   2.7391e-04 (   0.4 sec   4/  6 done)
     CP-SCF ITERATION   8:   2.6606e-05 (   0.3 sec   6/  6 done)
                    *** THE CP-SCF HAS CONVERGED ***

                                                 ... done   (      3.4 sec)
Forming perturbed density Hessian contributions  ... done   (      0.0 sec)
2nd integral derivative contribs (SHARK-RI)      ... done   (      3.1 sec)
Exchange-correlation Hessian                     ... done   (      2.9 sec)
Dipole derivatives                               ... (center of mass: -7.627595,  0.829526  0.000000)done   (      0.2 sec)

Total SCF Hessian time: 0 days 0 hours 0 min 16 sec 

Writing the Hessian file to the disk             ... done


Maximum memory used throughout the entire SCFHESS-calculation: 75.4 MB

-----------------------
VIBRATIONAL FREQUENCIES
-----------------------

Scaling factor for frequencies =  1.000000000  (already applied!)

   0:         0.00 cm**-1
   1:         0.00 cm**-1
   2:         0.00 cm**-1
   3:         0.00 cm**-1
   4:         0.00 cm**-1
   5:      2426.01 cm**-1


------------
NORMAL MODES
------------

These modes are the Cartesian displacements weighted by the diagonal matrix
M(i,i)=1/sqrt(m[i]) where m[i] is the mass of the displaced atom
Thus, these vectors are normalized but *not* orthogonal

                  0          1          2          3          4          5    
      0       0.000000   0.000000   0.000000   0.000000   0.000000   0.032312
      1       0.000000   0.000000   0.000000   0.000000   0.000000  -0.003725
      2       0.000000   0.000000   0.000000   0.000000   0.000000   0.000000
      3       0.000000   0.000000   0.000000   0.000000   0.000000  -0.992893
      4       0.000000   0.000000   0.000000   0.000000   0.000000   0.114476
      5       0.000000   0.000000   0.000000   0.000000   0.000000   0.000000


-----------
IR SPECTRUM
-----------

 Mode   freq       eps      Int      T**2         TX        TY        TZ
       cm**-1   L/(mol*cm) km/mol    a.u.
----------------------------------------------------------------------------
  5:   2426.01   0.000229    1.16  0.000029  (-0.005349  0.000909 -0.000000)

* The epsilon (eps) is given for a Dirac delta lineshape.
** The dipole moment derivative (T) already includes vibrational overlap.

The first frequency considered to be a vibration is 5
The total number of vibrations considered is 1


--------------------------
THERMOCHEMISTRY AT 298.15K
--------------------------

Temperature         ... 298.15 K
Pressure            ... 1.00 atm
Total Mass          ... 31.98 AMU
The molecule is recognized as being linear

Throughout the following assumptions are being made:
  (1) The electronic state is orbitally nondegenerate
      but the spin degeneracy is treated
  (2) There are no thermally accessible electronically excited states
  (3) Hindered rotations indicated by low frequency modes are not
      treated as such but are treated as vibrations and this may
      cause some error
  (4) All equations used are the standard statistical mechanics
      equations for an ideal gas
  (5) All vibrations are strictly harmonic

freq.    2426.01  E(vib)   ...       0.00 

------------
INNER ENERGY
------------

The inner energy is: U= E(el) + E(ZPE) + E(vib) + E(rot) + E(trans)
    E(el)   - is the total energy from the electronic structure calculation
              = E(kin-el) + E(nuc-el) + E(el-el) + E(nuc-nuc)
    E(ZPE)  - the the zero temperature vibrational energy from the frequency calculation
    E(vib)  - the the finite temperature correction to E(ZPE) due to population
              of excited vibrational states
    E(rot)  - is the rotational thermal energy
    E(trans)- is the translational thermal energy

Summary of contributions to the inner energy U:
Electronic energy                ...   -341.48923032 Eh
Zero point energy                ...      0.00552687 Eh       3.47 kcal/mol
Thermal vibrational correction   ...      0.00000009 Eh       0.00 kcal/mol
Thermal rotational correction    ...      0.00094418 Eh       0.59 kcal/mol
Thermal translational correction ...      0.00141627 Eh       0.89 kcal/mol
-----------------------------------------------------------------------
Total thermal energy                   -341.48134291 Eh


Summary of corrections to the electronic energy:
(perhaps to be used in another calculation)
Total thermal correction                  0.00236054 Eh       1.48 kcal/mol
Non-thermal (ZPE) correction              0.00552687 Eh       3.47 kcal/mol
-----------------------------------------------------------------------
Total correction                          0.00788741 Eh       4.95 kcal/mol


--------
ENTHALPY
--------

The enthalpy is H = U + kB*T
                kB is Boltzmann's constant
Total free energy                 ...   -341.48134291 Eh 
Thermal Enthalpy correction       ...      0.00094421 Eh       0.59 kcal/mol
-----------------------------------------------------------------------
Total Enthalpy                    ...   -341.48039871 Eh


Note: Rotational entropy computed according to Herzberg 
Infrared and Raman Spectra, Chapter V,1, Van Nostrand Reinhold, 1945 
Point Group:  Cinfv, Symmetry Number:   1  
Rotational constants in cm-1:     0.000000     8.541001     8.541001 

Vibrational entropy computed according to the QRRHO of S. Grimme
Chem.Eur.J. 2012 18 9955


-------
ENTROPY
-------

The entropy contributions are T*S = T*(S(el)+S(vib)+S(rot)+S(trans))
     S(el)   - electronic entropy
     S(vib)  - vibrational entropy
     S(rot)  - rotational entropy
     S(trans)- translational entropy
The entropies will be listed as multiplied by the temperature to get
units of energy

Electronic entropy                ...      0.00065446 Eh      0.41 kcal/mol
Vibrational entropy               ...      0.00000010 Eh      0.00 kcal/mol
Rotational entropy                ...      0.00395511 Eh      2.48 kcal/mol
Translational entropy             ...      0.01725670 Eh     10.83 kcal/mol
-----------------------------------------------------------------------
Final entropy term                ...      0.02186636 Eh     13.72 kcal/mol


-------------------
GIBBS FREE ENERGY
-------------------

The Gibbs free energy is G = H - T*S

Total enthalpy                    ...   -341.48039871 Eh 
Total entropy correction          ...     -0.02186636 Eh    -13.72 kcal/mol
-----------------------------------------------------------------------
Final Gibbs free energy         ...   -341.50226507 Eh

For completeness - the Gibbs free energy minus the electronic energy
G-E(el)                           ...     -0.01303474 Eh     -8.18 kcal/mol


Timings for individual modules:

Sum of individual times         ...       70.810 sec (=   1.180 min)
GTO integral calculation        ...       22.595 sec (=   0.377 min)  31.9 %
SCF iterations                  ...       19.075 sec (=   0.318 min)  26.9 %
SCF Gradient evaluation         ...        3.886 sec (=   0.065 min)   5.5 %
Geometry relaxation             ...        8.165 sec (=   0.136 min)  11.5 %
Analytical frequency calculation...       17.089 sec (=   0.285 min)  24.1 %
                             ****ORCA TERMINATED NORMALLY****
TOTAL RUN TIME: 0 days 0 hours 1 minutes 12 seconds 716 msec
