
                                 *****************
                                 * O   R   C   A *
                                 *****************

                                            #,                                       
                                            ###                                      
                                            ####                                     
                                            #####                                    
                                            ######                                   
                                           ########,                                 
                                     ,,################,,,,,                         
                               ,,#################################,,                 
                          ,,##########################################,,             
                       ,#########################################, ''#####,          
                    ,#############################################,,   '####,        
                  ,##################################################,,,,####,       
                ,###########''''           ''''###############################       
              ,#####''   ,,,,##########,,,,          '''####'''          '####       
            ,##' ,,,,###########################,,,                        '##       
           ' ,,###''''                  '''############,,,                           
         ,,##''                                '''############,,,,        ,,,,,,###''
      ,#''                                            '''#######################'''  
     '                                                          ''''####''''         
             ,#######,   #######,   ,#######,      ##                                
            ,#'     '#,  ##    ##  ,#'     '#,    #''#        ######   ,####,        
            ##       ##  ##   ,#'  ##            #'  '#       #        #'  '#        
            ##       ##  #######   ##           ,######,      #####,   #    #        
            '#,     ,#'  ##    ##  '#,     ,#' ,#      #,         ##   #,  ,#        
             '#######'   ##     ##  '#######'  #'      '#     #####' # '####'        



                  #######################################################
                  #                        -***-                        #
                  #          Department of theory and spectroscopy      #
                  #    Directorship and core code : Frank Neese         #
                  #        Max Planck Institute fuer Kohlenforschung    #
                  #                Kaiser Wilhelm Platz 1               #
                  #                 D-45470 Muelheim/Ruhr               #
                  #                      Germany                        #
                  #                                                     #
                  #                  All rights reserved                #
                  #                        -***-                        #
                  #######################################################


                         Program Version 5.0.2 -  RELEASE  -


 With contributions from (in alphabetic order):
   Daniel Aravena         : Magnetic Suceptibility
   Michael Atanasov       : Ab Initio Ligand Field Theory (pilot matlab implementation)
   Alexander A. Auer      : GIAO ZORA, VPT2 properties, NMR spectrum
   Ute Becker             : Parallelization
   Giovanni Bistoni       : ED, misc. LED, open-shell LED, HFLD
   Martin Brehm           : Molecular dynamics
   Dmytro Bykov           : SCF Hessian
   Vijay G. Chilkuri      : MRCI spin determinant printing, contributions to CSF-ICE
   Dipayan Datta          : RHF DLPNO-CCSD density
   Achintya Kumar Dutta   : EOM-CC, STEOM-CC
   Dmitry Ganyushin       : Spin-Orbit,Spin-Spin,Magnetic field MRCI
   Miquel Garcia          : C-PCM and meta-GGA Hessian, CC/C-PCM, Gaussian charge scheme
   Yang Guo               : DLPNO-NEVPT2, F12-NEVPT2, CIM, IAO-localization
   Andreas Hansen         : Spin unrestricted coupled pair/coupled cluster methods
   Benjamin Helmich-Paris : MC-RPA, TRAH-SCF, COSX integrals
   Lee Huntington         : MR-EOM, pCC
   Robert Izsak           : Overlap fitted RIJCOSX, COSX-SCS-MP3, EOM
   Marcus Kettner         : VPT2
   Christian Kollmar      : KDIIS, OOCD, Brueckner-CCSD(T), CCSD density, CASPT2, CASPT2-K
   Simone Kossmann        : Meta GGA functionals, TD-DFT gradient, OOMP2, MP2 Hessian
   Martin Krupicka        : Initial AUTO-CI
   Lucas Lang             : DCDCAS
   Marvin Lechner         : AUTO-CI (C++ implementation), FIC-MRCC
   Dagmar Lenk            : GEPOL surface, SMD
   Dimitrios Liakos       : Extrapolation schemes; Compound Job, initial MDCI parallelization
   Dimitrios Manganas     : Further ROCIS development; embedding schemes
   Dimitrios Pantazis     : SARC Basis sets
   Anastasios Papadopoulos: AUTO-CI, single reference methods and gradients
   Taras Petrenko         : DFT Hessian,TD-DFT gradient, ASA, ECA, R-Raman, ABS, FL, XAS/XES, NRVS
   Peter Pinski           : DLPNO-MP2, DLPNO-MP2 Gradient
   Christoph Reimann      : Effective Core Potentials
   Marius Retegan         : Local ZFS, SOC
   Christoph Riplinger    : Optimizer, TS searches, QM/MM, DLPNO-CCSD(T), (RO)-DLPNO pert. Triples
   Tobias Risthaus        : Range-separated hybrids, TD-DFT gradient, RPA, STAB
   Michael Roemelt        : Original ROCIS implementation
   Masaaki Saitow         : Open-shell DLPNO-CCSD energy and density
   Barbara Sandhoefer     : DKH picture change effects
   Avijit Sen             : IP-ROCIS
   Kantharuban Sivalingam : CASSCF convergence, NEVPT2, FIC-MRCI
   Bernardo de Souza      : ESD, SOC TD-DFT
   Georgi Stoychev        : AutoAux, RI-MP2 NMR, DLPNO-MP2 response
   Willem Van den Heuvel  : Paramagnetic NMR
   Boris Wezisla          : Elementary symmetry handling
   Frank Wennmohs         : Technical directorship


 We gratefully acknowledge several colleagues who have allowed us to
 interface, adapt or use parts of their codes:
   Stefan Grimme, W. Hujo, H. Kruse, P. Pracht,  : VdW corrections, initial TS optimization,
                  C. Bannwarth, S. Ehlert          DFT functionals, gCP, sTDA/sTD-DF
   Ed Valeev, F. Pavosevic, A. Kumar             : LibInt (2-el integral package), F12 methods
   Garnet Chan, S. Sharma, J. Yang, R. Olivares  : DMRG
   Ulf Ekstrom                                   : XCFun DFT Library
   Mihaly Kallay                                 : mrcc  (arbitrary order and MRCC methods)
   Jiri Pittner, Ondrej Demel                    : Mk-CCSD
   Frank Weinhold                                : gennbo (NPA and NBO analysis)
   Christopher J. Cramer and Donald G. Truhlar   : smd solvation model
   Lars Goerigk                                  : TD-DFT with DH, B97 family of functionals
   V. Asgeirsson, H. Jonsson                     : NEB implementation
   FAccTs GmbH                                   : IRC, NEB, NEB-TS, DLPNO-Multilevel, CI-OPT
                                                   MM, QMMM, 2- and 3-layer-ONIOM, Crystal-QMMM,
                                                   LR-CPCM, SF, NACMEs, symmetry and pop. for TD-DFT,
                                                   nearIR, NL-DFT gradient (VV10), updates on ESD,
                                                   ML-optimized integration grids
   S Lehtola, MJT Oliveira, MAL Marques          : LibXC Library
   Liviu Ungur et al                             : ANISO software


 Your calculation uses the libint2 library for the computation of 2-el integrals
 For citations please refer to: http://libint.valeyev.net

 Your ORCA version has been built with support for libXC version: 5.1.0
 For citations please refer to: https://tddft.org/programs/libxc/

 This ORCA versions uses:
   CBLAS   interface :  Fast vector & matrix operations
   LAPACKE interface :  Fast linear algebra routines
   Shared memory     :  Shared parallel matrices


================================================================================

----- Orbital basis set information -----
Your calculation utilizes the basis: cc-pVTZ 
       H, B-Ne : Obtained from the ccRepo (grant-hill.group.shef.ac.uk/ccrepo) Feb. 2017
                 T. H. Dunning, Jr., J. Chem. Phys. 90, 1007 (1989)
            He : Obtained from the ccRepo (grant-hill.group.shef.ac.uk/ccrepo) Feb. 2017
                 D. E. Woon, T. H. Dunning, Jr., J. Chem. Phys. 100, 2975 (1994)
  Li-Be, Na-Mg : Obtained from the ccRepo (grant-hill.group.shef.ac.uk/ccrepo) Feb. 2017
                 B. P. Prascher, D. E. Woon, K. A. Peterson, T. H. Dunning, Jr., A. K. Wilson, Theor. Chem. Acc. 128, 69 (2011)
         Al-Ar : Obtained from the ccRepo (grant-hill.group.shef.ac.uk/ccrepo) Feb. 2017
                 D. E. Woon, T. H. Dunning, Jr., J. Chem. Phys. 98, 1358 (1993)
            Ca : Obtained from the Peterson Research Group Website (tyr0.chem.wsu.edu/~kipeters) Feb. 2017
                 J. Koput, K. A. Peterson, J. Phys. Chem. 106, 9595 (2002)
         Sc-Zn : Obtained from the ccRepo (grant-hill.group.shef.ac.uk/ccrepo) Feb. 2017
                 N. B. Balabanov, K. A. Peterson, J. Chem. Phys. 123, 064107 (2005)
                 N. B. Balabanov, K. A. Peterson, J. Chem. Phys. 125, 074110 (2006)
         Ga-Kr : Obtained from the ccRepo (grant-hill.group.shef.ac.uk/ccrepo) Feb. 2017
                 A. K. Wilson, D. E. Woon, K. A. Peterson, T. H. Dunning, Jr., J. Chem. Phys. 110, 7667 (1999)
             Y : Obtained from the ccRepo (grant-hill.group.shef.ac.uk/ccrepo) Feb. 2017
                 K. A. Peterson, D. Figgen, M. Dolg, H. Stoll, J. Chem. Phys. 126, 124101 (2007)
        Ag, Au : Obtained from the Peterson Research Group Website (tyr0.chem.wsu.edu/~kipeters) Feb. 2017
                 K. A. Peterson, C. Puzzarini, Theor. Chem. Acc. 114, 283 (2005)

================================================================================
                                        WARNINGS
                       Please study these warnings very carefully!
================================================================================


WARNING: The frozen-core approximation for MP2-gradient calculations is turned on by default.

WARNING: Geometry Optimization
  ===> : Switching off AutoStart
         For restart on a previous wavefunction, please use MOREAD

WARNING: Post HF methods need fully converged wavefunctions
  ===> : Setting SCFConvForced true
         You can overwrite this default with %scf ConvForced false 


INFO   : the flag for use of the SHARK integral package has been found!

================================================================================
                                       INPUT FILE
================================================================================
NAME = H2.inp
|  1> # avogadro generated ORCA input file 
|  2> # H2
|  3> # 
|  4> ! MP2 OPT cc-pvtz LARGEPRINT  NUMFREQ
|  5> %maxcore 3000
|  6> 
|  7> %freq
|  8>     Increment 0.001
|  9> end
| 10> 
| 11> * xyz 0 1
| 12>    H       -5.98732        1.70385        0.00000
| 13>    H       -5.27951        1.72039        0.00000
| 14> *
| 15> 
| 16> 
| 17>                          ****END OF INPUT****
================================================================================

                       *****************************
                       * Geometry Optimization Run *
                       *****************************

Geometry optimization settings:
Update method            Update   .... BFGS
Choice of coordinates    CoordSys .... Z-matrix Internals
Initial Hessian          InHess   .... Almoef's Model

Convergence Tolerances:
Energy Change            TolE     ....  5.0000e-06 Eh
Max. Gradient            TolMAXG  ....  3.0000e-04 Eh/bohr
RMS Gradient             TolRMSG  ....  1.0000e-04 Eh/bohr
Max. Displacement        TolMAXD  ....  4.0000e-03 bohr
RMS Displacement         TolRMSD  ....  2.0000e-03 bohr
Strict Convergence                ....  False
------------------------------------------------------------------------------
                        ORCA OPTIMIZATION COORDINATE SETUP
------------------------------------------------------------------------------

The optimization will be done in new redundant internal coordinates
Making redundant internal coordinates   ...  (new redundants) done
Evaluating the initial hessian          ...  (Almloef) done
Evaluating the coordinates              ...  done
Calculating the B-matrix                .... done
Calculating the G-matrix                .... done
Diagonalizing the G-matrix              .... done
The first mode is                       ....    0
The number of degrees of freedom        ....    1

    -----------------------------------------------------------------
                    Redundant Internal Coordinates


    -----------------------------------------------------------------
         Definition                    Initial Value    Approx d2E/dq
    -----------------------------------------------------------------
      1. B(H   1,H   0)                  0.7080         0.280497   
    -----------------------------------------------------------------

Number of atoms                         .... 2
Number of degrees of freedom            .... 1

         *************************************************************
         *                GEOMETRY OPTIMIZATION CYCLE   1            *
         *************************************************************
---------------------------------
CARTESIAN COORDINATES (ANGSTROEM)
---------------------------------
  H     -5.987320    1.703850    0.000000
  H     -5.279510    1.720390    0.000000

----------------------------
CARTESIAN COORDINATES (A.U.)
----------------------------
  NO LB      ZA    FRAG     MASS         X           Y           Z
   0 H     1.0000    0     1.008  -11.314395    3.219810    0.000000
   1 H     1.0000    0     1.008   -9.976828    3.251066    0.000000

--------------------------------
INTERNAL COORDINATES (ANGSTROEM)
--------------------------------
 H      0   0   0     0.000000000000     0.00000000     0.00000000
 H      1   0   0     0.708003225769     0.00000000     0.00000000

---------------------------
INTERNAL COORDINATES (A.U.)
---------------------------
 H      0   0   0     0.000000000000     0.00000000     0.00000000
 H      1   0   0     1.337932198637     0.00000000     0.00000000

---------------------
BASIS SET INFORMATION
---------------------
There are 1 groups of distinct atoms

 Group   1 Type H   : 5s2p1d contracted to 3s2p1d pattern {311/11/1}

Atom   0H    basis set group =>   1
Atom   1H    basis set group =>   1

-------------------------
BASIS SET IN INPUT FORMAT
-------------------------

 # Basis set for element : H 
 NewGTO H 
 S 3 
   1      33.8700000000      0.0254948632
   2       5.0950000000      0.1903627659
   3       1.1590000000      0.8521620222
 S 1 
   1       0.3258000000      1.0000000000
 S 1 
   1       0.1027000000      1.0000000000
 P 1 
   1       1.4070000000      1.0000000000
 P 1 
   1       0.3880000000      1.0000000000
 D 1 
   1       1.0570000000      1.0000000000
  end;

------------------------------------------------------------------------------
                           ORCA GTO INTEGRAL CALCULATION
------------------------------------------------------------------------------
------------------------------------------------------------------------------
                   ___                                                        
                  /   \      - P O W E R E D   B Y -                         
                 /     \                                                     
                 |  |  |   _    _      __       _____    __    __             
                 |  |  |  | |  | |    /  \     |  _  \  |  |  /  |          
                  \  \/   | |  | |   /    \    | | | |  |  | /  /          
                 / \  \   | |__| |  /  /\  \   | |_| |  |  |/  /          
                |  |  |   |  __  | /  /__\  \  |    /   |      \           
                |  |  |   | |  | | |   __   |  |    \   |  |\   \          
                \     /   | |  | | |  |  |  |  | |\  \  |  | \   \       
                 \___/    |_|  |_| |__|  |__|  |_| \__\ |__|  \__/        
                                                                              
                      - O R C A' S   B I G   F R I E N D -                    
                                      &                                       
                       - I N T E G R A L  F E E D E R -                       
                                                                              
 v1 FN, 2020, v2 2021                                                         
------------------------------------------------------------------------------


Reading SHARK input file H2.SHARKINP.tmp ... SHARK General Contraction Test:  Segmented basis detected
   -> Pre-screening matrix *NOT* found on disk - recalculating with NShells=12
   -> Leaving CheckPreScreeningMatrix
ok
----------------------
SHARK INTEGRAL PACKAGE
----------------------

Number of atoms                             ...      2
Number of basis functions                   ...     28
Number of shells                            ...     12
Maximum angular momentum                    ...      2
Integral batch strategy                     ... SHARK/LIBINT Hybrid
RI-J (if used) integral strategy            ... SPLIT-RIJ (Revised 2003 algorithm where possible)
Printlevel                                  ...      2
Contraction scheme used                     ... SEGMENTED contraction
Coulomb Range Separation                    ... NOT USED
Exchange Range Separation                   ... NOT USED
Finite Nucleus Model                        ... NOT USED
Auxiliary Coulomb fitting basis             ... NOT available
Auxiliary J/K fitting basis                 ... NOT available
Auxiliary Correlation fitting basis         ... NOT available
Auxiliary 'external' fitting basis          ... NOT available
Integral threshold                          ...     2.500000e-11
Primitive cut-off                           ...     2.500000e-12
Primitive pair pre-selection threshold      ...     2.500000e-12

Calculating pre-screening integrals         ... done (  0.0 sec) Dimension = 12
Organizing shell pair data                  ... done (  0.0 sec)
Shell pair information
Total number of shell pairs                 ...        78
Shell pairs after pre-screening             ...        78
Total number of primitive shell pairs       ...       142
Primitive shell pairs kept                  ...       141
          la=0 lb=0:     21 shell pairs
          la=1 lb=0:     24 shell pairs
          la=1 lb=1:     10 shell pairs
          la=2 lb=0:     12 shell pairs
          la=2 lb=1:      8 shell pairs
          la=2 lb=2:      3 shell pairs

Calculating one electron integrals          ... done (  0.0 sec)
Calculating Nuclear repulsion               ... done (  0.0 sec) ENN=      0.747422030069 Eh

SHARK setup successfully completed in   0.1 seconds

Maximum memory used throughout the entire GTOINT-calculation: 6.0 MB
-------------------------------------------------------------------------------
                                 ORCA SCF
-------------------------------------------------------------------------------

------------
SCF SETTINGS
------------
Hamiltonian:
 Ab initio Hamiltonian  Method          .... Hartree-Fock(GTOs)


General Settings:
 Integral files         IntName         .... H2
 Hartree-Fock type      HFTyp           .... RHF
 Total Charge           Charge          ....    0
 Multiplicity           Mult            ....    1
 Number of Electrons    NEL             ....    2
 Basis Dimension        Dim             ....   28
 Nuclear Repulsion      ENuc            ....      0.7474220301 Eh

Convergence Acceleration:
 DIIS                   CNVDIIS         .... on
   Start iteration      DIISMaxIt       ....    12
   Startup error        DIISStart       ....  0.200000
   # of expansion vecs  DIISMaxEq       ....     5
   Bias factor          DIISBfac        ....   1.050
   Max. coefficient     DIISMaxC        ....  10.000
 Trust-Rad. Augm. Hess. CNVTRAH         .... auto
   Auto Start mean grad. ratio tolernc. ....  1.125000
   Auto Start start iteration           ....    20
   Auto Start num. interpolation iter.  ....    10
   Max. Number of Micro iterations      ....    16
   Max. Number of Macro iterations      .... Maxiter - #DIIS iter
   Number of Davidson start vectors     ....     2
   Converg. threshold I  (grad. norm)   ....   1.000e-05
   Converg. threshold II (energy diff.) ....   1.000e-08
   Grad. Scal. Fac. for Micro threshold ....   0.100
   Minimum threshold for Micro iter.    ....   0.010
   NR start threshold (gradient norm)   ....   0.001
   Initial trust radius                 ....   0.400
   Minimum AH scaling param. (alpha)    ....   1.000
   Maximum AH scaling param. (alpha)    .... 1000.000
   Orbital update algorithm             .... Taylor
   White noise on init. David. guess    .... on
   Maximum white noise                  ....   0.010
   Quad. conv. algorithm                .... NR
 SOSCF                  CNVSOSCF        .... on
   Start iteration      SOSCFMaxIt      ....   150
   Startup grad/error   SOSCFStart      ....  0.003300
 Level Shifting         CNVShift        .... on
   Level shift para.    LevelShift      ....    0.2500
   Turn off err/grad.   ShiftErr        ....    0.0010
 Zerner damping         CNVZerner       .... off
 Static damping         CNVDamp         .... on
   Fraction old density DampFac         ....    0.7000
   Max. Damping (<1)    DampMax         ....    0.9800
   Min. Damping (>=0)   DampMin         ....    0.0000
   Turn off err/grad.   DampErr         ....    0.1000
 Fernandez-Rico         CNVRico         .... off

SCF Procedure:
 Maximum # iterations   MaxIter         ....   125
 SCF integral mode      SCFMode         .... Direct
   Integral package                     .... SHARK and LIBINT hybrid scheme
 Reset frequency        DirectResetFreq ....    20
 Integral Threshold     Thresh          ....  2.500e-11 Eh
 Primitive CutOff       TCut            ....  2.500e-12 Eh

Convergence Tolerance:
 Convergence Check Mode ConvCheckMode   .... Total+1el-Energy
 Convergence forced     ConvForced      .... 1
 Energy Change          TolE            ....  1.000e-08 Eh
 1-El. energy change                    ....  1.000e-05 Eh
 Orbital Gradient       TolG            ....  1.000e-05
 Orbital Rotation angle TolX            ....  1.000e-05
 DIIS Error             TolErr          ....  5.000e-07


Diagonalization of the overlap matrix:
Smallest eigenvalue                        ... 1.308e-03
Time for diagonalization                   ...    0.002 sec
Threshold for overlap eigenvalues          ... 1.000e-08
Number of eigenvalues below threshold      ... 0
Time for construction of square roots      ...    0.002 sec
Total time needed                          ...    0.004 sec

SHARK General Contraction Test:  Segmented basis detected
   -> Pre-screening matrix found on disk - Trying to read with NShells=12
   -> Passing Pre-screening matrix on to SHARK ...ok
   -> Leaving CheckPreScreeningMatrix
----------------------
SHARK INTEGRAL PACKAGE
----------------------

Number of atoms                             ...      2
Number of basis functions                   ...     28
Number of shells                            ...     12
Maximum angular momentum                    ...      2
Integral batch strategy                     ... SHARK/LIBINT Hybrid
RI-J (if used) integral strategy            ... SPLIT-RIJ (Revised 2003 algorithm where possible)
Printlevel                                  ...      2
Contraction scheme used                     ... SEGMENTED contraction
Coulomb Range Separation                    ... NOT USED
Exchange Range Separation                   ... NOT USED
Finite Nucleus Model                        ... NOT USED
Auxiliary Coulomb fitting basis             ... NOT available
Auxiliary J/K fitting basis                 ... NOT available
Auxiliary Correlation fitting basis         ... NOT available
Auxiliary 'external' fitting basis          ... NOT available
Integral threshold                          ...     2.500000e-11
Primitive cut-off                           ...     2.500000e-12
Primitive pair pre-selection threshold      ...     2.500000e-12

Time for model grid setup =    0.019 sec

------------------------------
INITIAL GUESS: MODEL POTENTIAL
------------------------------
Loading Hartree-Fock densities                     ... done
Calculating cut-offs                               ... done
Initializing the effective Hamiltonian             ... done
Setting up the integral package (SHARK)            ... done
Starting the Coulomb interaction                   ...     -> Generating integrals - 
    -> L=0 0 :     0.001 sec done=       210 skipped=         0 prim-skipped=         0
    -> L=1 0 :     0.000 sec done=       240 skipped=         0 prim-skipped=         0
    -> L=1 1 :     0.001 sec done=       100 skipped=         0 prim-skipped=         0
    -> L=2 0 :     0.000 sec done=       120 skipped=         0 prim-skipped=         0
    -> L=2 1 :     0.001 sec done=        80 skipped=         0 prim-skipped=         0
    -> L=2 2 :     0.000 sec done=        30 skipped=         0 prim-skipped=         0
done (   0.0 sec)
Reading the grid                                   ... done
Mapping shells                                     ... done
Starting the XC term evaluation                    ... done (   0.0 sec)
Transforming the Hamiltonian                       ... done (   0.0 sec)
Diagonalizing the Hamiltonian                      ... done (   0.0 sec)
Back transforming the eigenvectors                 ... done (   0.0 sec)
Now organizing SCF variables                       ... done
                      ------------------
                      INITIAL GUESS DONE (   0.0 sec)
                      ------------------
----------------------
INITIAL GUESS ORBITALS
----------------------
                      0         1         2         3         4         5   
                  -0.46857   0.01651   0.14788   0.41151   0.41756   0.41757
                   2.00000   0.00000   0.00000   0.00000   0.00000   0.00000
                  --------  --------  --------  --------  --------  --------
  0H   1s         0.207754  0.099211 -0.090673 -0.166201  0.000382  0.000000
  0H   2s         0.284530  0.033667 -0.643840 -2.368914  0.006938  0.000000
  0H   3s         0.112435  1.949987  0.828180  2.688183 -0.005711 -0.000000
  0H   1pz       -0.000000 -0.000000  0.000000  0.000000  0.000000  0.037676
  0H   1px        0.014286 -0.024485 -0.019355 -0.061079 -0.000722  0.000000
  0H   1py        0.000334 -0.000576 -0.000447 -0.001338  0.037674 -0.000000
  0H   2pz        0.000000 -0.000000 -0.000000 -0.000000 -0.000000 -0.562523
  0H   2px        0.016153 -0.095032  0.022524 -0.274953  0.014591  0.000000
  0H   2py        0.000388 -0.002218  0.000412 -0.007606 -0.562336  0.000000
  0H   1dz2      -0.000604  0.004978 -0.001524  0.025715 -0.000054 -0.000000
  0H   1dxz       0.000000 -0.000000 -0.000000 -0.000000  0.000000  0.002019
  0H   1dyz       0.000000 -0.000000  0.000000 -0.000000 -0.000000  0.000055
  0H   1dx2y2     0.001044 -0.008611  0.002637 -0.044495  0.000093 -0.000000
  0H   1dxy       0.000055 -0.000399  0.000092 -0.002086  0.002020 -0.000000
  1H   1s         0.207754 -0.099211 -0.090673  0.166201 -0.000382 -0.000000
  1H   2s         0.284530 -0.033667 -0.643840  2.368914 -0.006938 -0.000000
  1H   3s         0.112435 -1.949987  0.828180 -2.688183  0.005711  0.000000
  1H   1pz       -0.000000  0.000000 -0.000000  0.000000  0.000000  0.037676
  1H   1px       -0.014286 -0.024485  0.019355 -0.061079 -0.000722  0.000000
  1H   1py       -0.000334 -0.000576  0.000447 -0.001338  0.037674 -0.000000
  1H   2pz       -0.000000  0.000000  0.000000 -0.000000 -0.000000 -0.562523
  1H   2px       -0.016153 -0.095032 -0.022524 -0.274953  0.014591  0.000000
  1H   2py       -0.000388 -0.002218 -0.000412 -0.007606 -0.562336  0.000000
  1H   1dz2      -0.000604 -0.004978 -0.001524 -0.025715  0.000054  0.000000
  1H   1dxz      -0.000000 -0.000000  0.000000  0.000000  0.000000 -0.002019
  1H   1dyz       0.000000 -0.000000 -0.000000 -0.000000  0.000000 -0.000055
  1H   1dx2y2     0.001044  0.008611  0.002637  0.044495 -0.000093 -0.000000
  1H   1dxy       0.000055  0.000399  0.000092  0.002086 -0.002020 -0.000000
                      6         7         8         9        10        11   
                   0.83785   0.86280   0.86285   1.31441   1.92549   1.94339
                   0.00000   0.00000   0.00000   0.00000   0.00000   0.00000
                  --------  --------  --------  --------  --------  --------
  0H   1s         0.016839 -0.000018 -0.000000  0.022203 -0.590587 -0.947149
  0H   2s         0.698232 -0.002165 -0.000000 14.754650  2.393011  1.004471
  0H   3s        -0.394514  0.001243  0.000000 -0.599273 -1.460556 -0.408930
  0H   1pz        0.000000 -0.000000  0.038339 -0.000000  0.000000  0.000000
  0H   1px        0.074494  0.000709 -0.000000  0.129427  0.551608 -0.112027
  0H   1py        0.001604 -0.038341 -0.000000  0.003087  0.012941 -0.002563
  0H   2pz       -0.000000  0.000000 -1.455157  0.000000  0.000000  0.000000
  0H   2px       -1.081360 -0.030771 -0.000000  6.545031  0.124512  0.282282
  0H   2py       -0.020780  1.454861  0.000000  0.152969  0.002897  0.006556
  0H   1dz2       0.034369 -0.000122  0.000000 -0.125173 -0.189035  0.048262
  0H   1dxz      -0.000000  0.000000 -0.110669  0.000000  0.000000  0.000000
  0H   1dyz      -0.000000  0.000000 -0.002569  0.000000  0.000000  0.000000
  0H   1dx2y2    -0.059473 -0.005073 -0.000000  0.216538  0.327035 -0.083542
  0H   1dxy      -0.002407  0.110609  0.000000  0.010113  0.015273 -0.003895
  1H   1s         0.016839 -0.000018  0.000000 -0.022203  0.590587 -0.947149
  1H   2s         0.698232 -0.002165  0.000000-14.754650 -2.393011  1.004471
  1H   3s        -0.394514  0.001243 -0.000000  0.599273  1.460556 -0.408930
  1H   1pz        0.000000  0.000000 -0.038339 -0.000000 -0.000000 -0.000000
  1H   1px       -0.074494 -0.000709 -0.000000  0.129427  0.551608  0.112027
  1H   1py       -0.001604  0.038341  0.000000  0.003087  0.012941  0.002563
  1H   2pz        0.000000 -0.000000  1.455157 -0.000000 -0.000000 -0.000000
  1H   2px        1.081360  0.030771 -0.000000  6.545031  0.124512 -0.282282
  1H   2py        0.020780 -1.454861 -0.000000  0.152969  0.002897 -0.006556
  1H   1dz2       0.034369 -0.000122 -0.000000  0.125173  0.189035  0.048262
  1H   1dxz      -0.000000  0.000000 -0.110669 -0.000000  0.000000 -0.000000
  1H   1dyz      -0.000000  0.000000 -0.002569  0.000000  0.000000  0.000000
  1H   1dx2y2    -0.059473 -0.005073  0.000000 -0.216538 -0.327035 -0.083542
  1H   1dxy      -0.002407  0.110609  0.000000 -0.010113 -0.015273 -0.003895
                     12        13        14        15        16        17   
                   2.73735   2.74122   2.92724   2.92728   3.23289   3.44619
                   0.00000   0.00000   0.00000   0.00000   0.00000   0.00000
                  --------  --------  --------  --------  --------  --------
  0H   1s         0.000000 -0.000020  0.000000  0.000033  0.090991  0.000021
  0H   2s        -0.000000  0.000029 -0.000000 -0.000707  0.292130 -0.000316
  0H   3s         0.000000 -0.000012  0.000000  0.000083 -0.169847  0.000171
  0H   1pz        0.000215  0.000000  0.615257 -0.000000  0.000000 -0.000000
  0H   1px       -0.000000  0.000016 -0.000000 -0.014416  0.799626  0.010164
  0H   1py       -0.000000 -0.000207  0.000000  0.615058  0.018310 -0.464282
  0H   2pz       -0.000233 -0.000000 -0.381984  0.000000 -0.000000  0.000000
  0H   2px       -0.000000 -0.000009 -0.000000  0.008655 -0.932160 -0.027677
  0H   2py       -0.000000  0.000064 -0.000000 -0.381876 -0.020832  1.216900
  0H   1dz2      -0.000000  0.519741 -0.000000 -0.000312  0.228439 -0.000138
  0H   1dxz       0.013989  0.000000  0.286345 -0.000000 -0.000000  0.000000
  0H   1dyz      -0.599970 -0.000000  0.006373 -0.000000 -0.000000  0.000000
  0H   1dx2y2    -0.000000  0.299731  0.000000 -0.013564 -0.395295 -0.039504
  0H   1dxy      -0.000000  0.013802  0.000000  0.286123 -0.017758  0.849523
  1H   1s        -0.000000 -0.000020 -0.000000 -0.000033  0.090991  0.000021
  1H   2s         0.000000  0.000029  0.000000  0.000707  0.292130 -0.000316
  1H   3s        -0.000000 -0.000012 -0.000000 -0.000083 -0.169847  0.000171
  1H   1pz       -0.000215  0.000000  0.615257 -0.000000 -0.000000  0.000000
  1H   1px        0.000000 -0.000016 -0.000000 -0.014416 -0.799626 -0.010164
  1H   1py       -0.000000  0.000207  0.000000  0.615058 -0.018310  0.464282
  1H   2pz        0.000233 -0.000000 -0.381984  0.000000  0.000000 -0.000000
  1H   2px       -0.000000  0.000009 -0.000000  0.008655  0.932160  0.027677
  1H   2py        0.000000 -0.000064 -0.000000 -0.381876  0.020832 -1.216900
  1H   1dz2      -0.000000  0.519741  0.000000  0.000312  0.228439 -0.000138
  1H   1dxz       0.013989 -0.000000 -0.286345  0.000000 -0.000000  0.000000
  1H   1dyz      -0.599970 -0.000000 -0.006373  0.000000 -0.000000  0.000000
  1H   1dx2y2    -0.000000  0.299731 -0.000000  0.013564 -0.395295 -0.039504
  1H   1dxy      -0.000000  0.013802 -0.000000 -0.286123 -0.017758  0.849523
                     18        19        20        21        22        23   
                   3.44625   3.69306   3.69364   3.70761   3.70767   4.32688
                   0.00000   0.00000   0.00000   0.00000   0.00000   0.00000
                  --------  --------  --------  --------  --------  --------
  0H   1s         0.000000  0.000073 -0.000000 -0.000492  0.000000 -0.726209
  0H   2s        -0.000000  0.000457 -0.000000 -0.003898  0.000000 -8.261150
  0H   3s         0.000000  0.000026 -0.000000 -0.000066  0.000000 -0.031381
  0H   1pz       -0.464426  0.000000 -0.000414 -0.000000 -0.629294 -0.000000
  0H   1px        0.000000  0.000323  0.000000  0.014802 -0.000000  0.257565
  0H   1py        0.000000 -0.015061  0.000000 -0.628969  0.000000  0.006383
  0H   2pz        1.217237 -0.000000  0.000104  0.000000  0.233352  0.000000
  0H   2px       -0.000000  0.000117 -0.000000 -0.007427  0.000000 -4.075821
  0H   2py       -0.000000  0.005624 -0.000000  0.233188 -0.000000 -0.095406
  0H   1dz2      -0.000000 -0.782774  0.000000  0.018695 -0.000000  0.465524
  0H   1dxz       0.850176 -0.000000 -0.020419  0.000000  0.599707  0.000000
  0H   1dyz       0.019745  0.000000  0.903847  0.000000  0.013108 -0.000000
  0H   1dx2y2     0.000000 -0.452012  0.000000 -0.017824  0.000000 -0.805595
  0H   1dxy      -0.000000 -0.007111 -0.000000  0.599494 -0.000000 -0.037990
  1H   1s        -0.000000 -0.000073  0.000000  0.000492 -0.000000  0.726209
  1H   2s         0.000000 -0.000457  0.000000  0.003898 -0.000000  8.261150
  1H   3s        -0.000000 -0.000026  0.000000  0.000066 -0.000000  0.031381
  1H   1pz        0.464426  0.000000 -0.000414 -0.000000 -0.629294 -0.000000
  1H   1px       -0.000000  0.000323  0.000000  0.014802 -0.000000  0.257565
  1H   1py       -0.000000 -0.015061  0.000000 -0.628969  0.000000  0.006383
  1H   2pz       -1.217237 -0.000000  0.000104  0.000000  0.233352  0.000000
  1H   2px        0.000000  0.000117 -0.000000 -0.007427  0.000000 -4.075821
  1H   2py        0.000000  0.005624 -0.000000  0.233188 -0.000000 -0.095406
  1H   1dz2       0.000000  0.782774 -0.000000 -0.018695  0.000000 -0.465524
  1H   1dxz       0.850176  0.000000  0.020419 -0.000000 -0.599707 -0.000000
  1H   1dyz       0.019745 -0.000000 -0.903847 -0.000000 -0.013108  0.000000
  1H   1dx2y2    -0.000000  0.452012 -0.000000  0.017824 -0.000000  0.805595
  1H   1dxy      -0.000000  0.007111  0.000000 -0.599494  0.000000  0.037990
                     24        25        26        27   
                   5.36663   5.36671   5.43926   6.54908
                   0.00000   0.00000   0.00000   0.00000
                  --------  --------  --------  --------
  0H   1s        -0.000000 -0.000506 -1.307015  1.799610
  0H   2s        -0.000000  0.000266  0.623357  4.582697
  0H   3s        -0.000000 -0.000057 -0.103238 -0.672496
  0H   1pz        1.197912  0.000000 -0.000000 -0.000000
  0H   1px        0.000000  0.028007  0.043060  2.061459
  0H   1py        0.000000 -1.197597  0.001396  0.048153
  0H   2pz        0.554027  0.000000 -0.000000 -0.000000
  0H   2px       -0.000000  0.013227  0.782093  1.679518
  0H   2py        0.000000 -0.553831  0.018653  0.039257
  0H   1dz2      -0.000000 -0.000297 -0.589125 -0.502139
  0H   1dxz       1.447608  0.000000 -0.000000 -0.000000
  0H   1dyz       0.033887  0.000000 -0.000000 -0.000000
  0H   1dx2y2    -0.000000  0.067953  1.019261  0.868784
  0H   1dxy       0.000000 -1.446386  0.048286  0.040647
  1H   1s        -0.000000 -0.000506 -1.307015 -1.799610
  1H   2s         0.000000  0.000266  0.623357 -4.582697
  1H   3s        -0.000000 -0.000057 -0.103238  0.672496
  1H   1pz       -1.197912 -0.000000  0.000000  0.000000
  1H   1px        0.000000 -0.028007 -0.043060  2.061459
  1H   1py       -0.000000  1.197597 -0.001396  0.048153
  1H   2pz       -0.554027 -0.000000  0.000000  0.000000
  1H   2px       -0.000000 -0.013227 -0.782093  1.679518
  1H   2py       -0.000000  0.553831 -0.018653  0.039257
  1H   1dz2      -0.000000 -0.000297 -0.589125  0.502139
  1H   1dxz       1.447608  0.000000 -0.000000 -0.000000
  1H   1dyz       0.033887  0.000000 -0.000000 -0.000000
  1H   1dx2y2    -0.000000  0.067953  1.019261 -0.868784
  1H   1dxy       0.000000 -1.446386  0.048286 -0.040647
--------------
SCF ITERATIONS
--------------
               ***  Starting incremental Fock matrix formation  ***
===> SHARK/Fock/General/Sym: HFTyp=1 DoJ=1 DoX=1 facj= 2.000 facx=-0.500 NFock=1 NumOp=1 NMat=1 RangeSep=0 GeneralContraction=0 PGCOpt=-1
    -> L=0 0 0 0:     0.000 sec done=       231 (=100.0%) skipped=         0 
    -> L=1 0 0 0:     0.000 sec done=       504 (=100.0%) skipped=         0 
    -> L=1 0 1 0:     0.001 sec done=       300 (=100.0%) skipped=         0 
    -> L=1 1 0 0:     0.000 sec done=       210 (=100.0%) skipped=         0 
    -> L=1 1 1 0:     0.000 sec done=       240 (=100.0%) skipped=         0 
    -> L=1 1 1 1:     0.000 sec done=        55 (=100.0%) skipped=         0 
    -> L=2 0 0 0:     0.000 sec done=       252 (=100.0%) skipped=         0 
    -> RHF LowL loop time =     0.003 sec
    -> L=2 0 1 0:     0.001 sec done=       288 (=100.0%) skipped=         0 
    -> L=2 0 1 1:     0.000 sec done=       120 (=100.0%) skipped=         0 
    -> L=2 0 2 0:     0.001 sec done=        78 (=100.0%) skipped=         0 
    -> L=2 1 0 0:     0.000 sec done=       168 (=100.0%) skipped=         0 
    -> L=2 1 1 0:     0.001 sec done=       192 (=100.0%) skipped=         0 
    -> L=2 1 2 0:     0.001 sec done=        96 (=100.0%) skipped=         0 
    -> L=2 2 0 0:     0.000 sec done=        63 (=100.0%) skipped=         0 
    ->Total SHARK integral loop time =    0.004 sec
    -> L=0 1 2 2:     0.000 sec done=        72 (=100.0%) skipped=         0 
    -> L=0 2 2 2:     0.001 sec done=        36 (=100.0%) skipped=         0 
    -> L=1 1 1 2:     0.000 sec done=        80 (=100.0%) skipped=         0 
    -> L=1 1 2 2:     0.000 sec done=        30 (=100.0%) skipped=         0 
    -> L=1 2 1 2:     0.001 sec done=        36 (=100.0%) skipped=         0 
    -> L=1 2 2 2:     0.000 sec done=        24 (=100.0%) skipped=         0 
    -> L=2 2 2 2:     0.000 sec done=         6 (=100.0%) skipped=         0 
    ->Total LIBINT loop time =    0.002 sec

                         ----------------------------
                         !        ITERATION     0   !
                         ----------------------------
   Total Energy        :      -1.129784150096 Eh
   Energy Change       :      -1.129784150096 Eh
   MAX-DP              :       0.003378471030
   RMS-DP              :       0.000301559274
   Actual Damping      :       0.7000
   Actual Level Shift  :       0.2500 Eh

===> SHARK/Fock/General/Sym: HFTyp=1 DoJ=1 DoX=1 facj= 2.000 facx=-0.500 NFock=1 NumOp=1 NMat=1 RangeSep=0 GeneralContraction=0 PGCOpt=-1
    -> L=0 0 0 0:     0.000 sec done=       231 (=100.0%) skipped=         0 
    -> L=1 0 0 0:     0.000 sec done=       504 (=100.0%) skipped=         0 
    -> L=1 0 1 0:     0.000 sec done=       300 (=100.0%) skipped=         0 
    -> L=1 1 0 0:     0.000 sec done=       210 (=100.0%) skipped=         0 
    -> L=1 1 1 0:     0.001 sec done=       240 (=100.0%) skipped=         0 
    -> L=1 1 1 1:     0.000 sec done=        55 (=100.0%) skipped=         0 
    -> L=2 0 0 0:     0.000 sec done=       252 (=100.0%) skipped=         0 
    -> RHF LowL loop time =     0.002 sec
    -> L=2 0 1 0:     0.001 sec done=       288 (=100.0%) skipped=         0 
    -> L=2 0 1 1:     0.001 sec done=       120 (=100.0%) skipped=         0 
    -> L=2 0 2 0:     0.000 sec done=        78 (=100.0%) skipped=         0 
    -> L=2 1 0 0:     0.001 sec done=       168 (=100.0%) skipped=         0 
    -> L=2 1 1 0:     0.001 sec done=       192 (=100.0%) skipped=         0 
    -> L=2 1 2 0:     0.001 sec done=        96 (=100.0%) skipped=         0 
    -> L=2 2 0 0:     0.000 sec done=        63 (=100.0%) skipped=         0 
    ->Total SHARK integral loop time =    0.005 sec
    -> L=0 1 2 2:     0.001 sec done=        72 (=100.0%) skipped=         0 
    -> L=0 2 2 2:     0.000 sec done=        36 (=100.0%) skipped=         0 
    -> L=1 1 1 2:     0.000 sec done=        80 (=100.0%) skipped=         0 
    -> L=1 1 2 2:     0.000 sec done=        30 (=100.0%) skipped=         0 
    -> L=1 2 1 2:     0.001 sec done=        36 (=100.0%) skipped=         0 
    -> L=1 2 2 2:     0.000 sec done=        24 (=100.0%) skipped=         0 
    -> L=2 2 2 2:     0.000 sec done=         6 (=100.0%) skipped=         0 
    ->Total LIBINT loop time =    0.002 sec

                         ----------------------------
                         !        ITERATION     1   !
                         ----------------------------
   Total Energy        :      -1.130479370959 Eh
   Energy Change       :      -0.000695220863 Eh
   MAX-DP              :       0.002734984407
   RMS-DP              :       0.000264949097
   Actual Damping      :       0.7000
   Actual Level Shift  :       0.2500 Eh

===> SHARK/Fock/General/Sym: HFTyp=1 DoJ=1 DoX=1 facj= 2.000 facx=-0.500 NFock=1 NumOp=1 NMat=1 RangeSep=0 GeneralContraction=0 PGCOpt=-1
    -> L=0 0 0 0:     0.000 sec done=       231 (=100.0%) skipped=         0 
    -> L=1 0 0 0:     0.001 sec done=       504 (=100.0%) skipped=         0 
    -> L=1 0 1 0:     0.000 sec done=       300 (=100.0%) skipped=         0 
    -> L=1 1 0 0:     0.000 sec done=       210 (=100.0%) skipped=         0 
    -> L=1 1 1 0:     0.001 sec done=       240 (=100.0%) skipped=         0 
    -> L=1 1 1 1:     0.000 sec done=        55 (=100.0%) skipped=         0 
    -> L=2 0 0 0:     0.000 sec done=       252 (=100.0%) skipped=         0 
    -> RHF LowL loop time =     0.002 sec
    -> L=2 0 1 0:     0.001 sec done=       288 (=100.0%) skipped=         0 
    -> L=2 0 1 1:     0.001 sec done=       120 (=100.0%) skipped=         0 
    -> L=2 0 2 0:     0.000 sec done=        78 (=100.0%) skipped=         0 
    -> L=2 1 0 0:     0.000 sec done=       168 (=100.0%) skipped=         0 
    -> L=2 1 1 0:     0.001 sec done=       192 (=100.0%) skipped=         0 
    -> L=2 1 2 0:     0.001 sec done=        96 (=100.0%) skipped=         0 
    -> L=2 2 0 0:     0.000 sec done=        63 (=100.0%) skipped=         0 
    ->Total SHARK integral loop time =    0.004 sec
    -> L=0 1 2 2:     0.001 sec done=        72 (=100.0%) skipped=         0 
    -> L=0 2 2 2:     0.000 sec done=        36 (=100.0%) skipped=         0 
    -> L=1 1 1 2:     0.001 sec done=        80 (=100.0%) skipped=         0 
    -> L=1 1 2 2:     0.000 sec done=        30 (=100.0%) skipped=         0 
    -> L=1 2 1 2:     0.000 sec done=        36 (=100.0%) skipped=         0 
    -> L=1 2 2 2:     0.000 sec done=        24 (=100.0%) skipped=         0 
    -> L=2 2 2 2:     0.000 sec done=         6 (=100.0%) skipped=         0 
    ->Total LIBINT loop time =    0.003 sec
                               ***Turning on DIIS***

                         ----------------------------
                         !        ITERATION     2   !
                         ----------------------------
   Total Energy        :      -1.131019821112 Eh
   Energy Change       :      -0.000540450154 Eh
   MAX-DP              :       0.006752797814
   RMS-DP              :       0.000692808118
   Actual Damping      :       0.0000
   Actual Level Shift  :       0.2500 Eh
   DIIS-Error          :       0.032234797918

===> SHARK/Fock/General/Sym: HFTyp=1 DoJ=1 DoX=1 facj= 2.000 facx=-0.500 NFock=1 NumOp=1 NMat=1 RangeSep=0 GeneralContraction=0 PGCOpt=-1
    -> L=0 0 0 0:     0.000 sec done=       231 (=100.0%) skipped=         0 
    -> L=1 0 0 0:     0.000 sec done=       504 (=100.0%) skipped=         0 
    -> L=1 0 1 0:     0.001 sec done=       300 (=100.0%) skipped=         0 
    -> L=1 1 0 0:     0.000 sec done=       210 (=100.0%) skipped=         0 
    -> L=1 1 1 0:     0.000 sec done=       240 (=100.0%) skipped=         0 
    -> L=1 1 1 1:     0.001 sec done=        55 (=100.0%) skipped=         0 
    -> L=2 0 0 0:     0.000 sec done=       252 (=100.0%) skipped=         0 
    -> RHF LowL loop time =     0.002 sec
    -> L=2 0 1 0:     0.001 sec done=       288 (=100.0%) skipped=         0 
    -> L=2 0 1 1:     0.000 sec done=       120 (=100.0%) skipped=         0 
    -> L=2 0 2 0:     0.001 sec done=        78 (=100.0%) skipped=         0 
    -> L=2 1 0 0:     0.001 sec done=       168 (=100.0%) skipped=         0 
    -> L=2 1 1 0:     0.001 sec done=       192 (=100.0%) skipped=         0 
    -> L=2 1 2 0:     0.000 sec done=        96 (=100.0%) skipped=         0 
    -> L=2 2 0 0:     0.001 sec done=        63 (=100.0%) skipped=         0 
    ->Total SHARK integral loop time =    0.005 sec
    -> L=0 1 2 2:     0.000 sec done=        72 (=100.0%) skipped=         0 
    -> L=0 2 2 2:     0.001 sec done=        36 (=100.0%) skipped=         0 
    -> L=1 1 1 2:     0.000 sec done=        80 (=100.0%) skipped=         0 
    -> L=1 1 2 2:     0.001 sec done=        30 (=100.0%) skipped=         0 
    -> L=1 2 1 2:     0.000 sec done=        36 (=100.0%) skipped=         0 
    -> L=1 2 2 2:     0.001 sec done=        24 (=100.0%) skipped=         0 
    -> L=2 2 2 2:     0.000 sec done=         6 (=100.0%) skipped=         0 
    ->Total LIBINT loop time =    0.003 sec

                         ----------------------------
                         !        ITERATION     3   !
                         ----------------------------
   Total Energy        :      -1.133285129058 Eh
   Energy Change       :      -0.002265307946 Eh
   MAX-DP              :       0.001243133152
   RMS-DP              :       0.000146871844
   Actual Damping      :       0.0000
   Actual Level Shift  :       0.2500 Eh
   DIIS-Error          :       0.005065085571
   DIIS coefficients:
     -0.14018   1.14018

===> SHARK/Fock/General/Sym: HFTyp=1 DoJ=1 DoX=1 facj= 2.000 facx=-0.500 NFock=1 NumOp=1 NMat=1 RangeSep=0 GeneralContraction=0 PGCOpt=-1
    -> L=0 0 0 0:     0.000 sec done=       231 (=100.0%) skipped=         0 
    -> L=1 0 0 0:     0.000 sec done=       504 (=100.0%) skipped=         0 
    -> L=1 0 1 0:     0.001 sec done=       300 (=100.0%) skipped=         0 
    -> L=1 1 0 0:     0.000 sec done=       210 (=100.0%) skipped=         0 
    -> L=1 1 1 0:     0.001 sec done=       240 (=100.0%) skipped=         0 
    -> L=1 1 1 1:     0.000 sec done=        55 (=100.0%) skipped=         0 
    -> L=2 0 0 0:     0.000 sec done=       252 (=100.0%) skipped=         0 
    -> RHF LowL loop time =     0.002 sec
    -> L=2 0 1 0:     0.001 sec done=       288 (=100.0%) skipped=         0 
    -> L=2 0 1 1:     0.001 sec done=       120 (=100.0%) skipped=         0 
    -> L=2 0 2 0:     0.000 sec done=        78 (=100.0%) skipped=         0 
    -> L=2 1 0 0:     0.000 sec done=       168 (=100.0%) skipped=         0 
    -> L=2 1 1 0:     0.000 sec done=       192 (=100.0%) skipped=         0 
    -> L=2 1 2 0:     0.001 sec done=        96 (=100.0%) skipped=         0 
    -> L=2 2 0 0:     0.000 sec done=        63 (=100.0%) skipped=         0 
    ->Total SHARK integral loop time =    0.004 sec
    -> L=0 1 2 2:     0.000 sec done=        72 (=100.0%) skipped=         0 
    -> L=0 2 2 2:     0.000 sec done=        36 (=100.0%) skipped=         0 
    -> L=1 1 1 2:     0.001 sec done=        80 (=100.0%) skipped=         0 
    -> L=1 1 2 2:     0.000 sec done=        30 (=100.0%) skipped=         0 
    -> L=1 2 1 2:     0.000 sec done=        36 (=100.0%) skipped=         0 
    -> L=1 2 2 2:     0.001 sec done=        24 (=100.0%) skipped=         0 
    -> L=2 2 2 2:     0.000 sec done=         6 (=100.0%) skipped=         0 
    ->Total LIBINT loop time =    0.003 sec
                      *** Initiating the SOSCF procedure ***
                           *** Shutting down DIIS ***
                      *** Re-Reading the Fockian *** 
                      *** Removing any level shift *** 

                         ----------------------------
                         !        ITERATION     4   !
                         ----------------------------
   Total Energy        :      -1.132667563020 Eh
   Energy Change       :       0.000617566038 Eh
   MAX-DP              :       0.000688483199
   RMS-DP              :       0.000058038775
   Orbital gradient    :       0.001002742426
   Orbital Rotation    :       0.001002742426
   Actual Damping      :       0.0000

               *** Restarting incremental Fock matrix formation ***
===> SHARK/Fock/General/Sym: HFTyp=1 DoJ=1 DoX=1 facj= 2.000 facx=-0.500 NFock=1 NumOp=1 NMat=1 RangeSep=0 GeneralContraction=0 PGCOpt=-1
    -> L=0 0 0 0:     0.000 sec done=       231 (=100.0%) skipped=         0 
    -> L=1 0 0 0:     0.000 sec done=       504 (=100.0%) skipped=         0 
    -> L=1 0 1 0:     0.001 sec done=       300 (=100.0%) skipped=         0 
    -> L=1 1 0 0:     0.000 sec done=       210 (=100.0%) skipped=         0 
    -> L=1 1 1 0:     0.000 sec done=       240 (=100.0%) skipped=         0 
    -> L=1 1 1 1:     0.001 sec done=        55 (=100.0%) skipped=         0 
    -> L=2 0 0 0:     0.000 sec done=       252 (=100.0%) skipped=         0 
    -> RHF LowL loop time =     0.002 sec
    -> L=2 0 1 0:     0.001 sec done=       288 (=100.0%) skipped=         0 
    -> L=2 0 1 1:     0.000 sec done=       120 (=100.0%) skipped=         0 
    -> L=2 0 2 0:     0.001 sec done=        78 (=100.0%) skipped=         0 
    -> L=2 1 0 0:     0.000 sec done=       168 (=100.0%) skipped=         0 
    -> L=2 1 1 0:     0.001 sec done=       192 (=100.0%) skipped=         0 
    -> L=2 1 2 0:     0.001 sec done=        96 (=100.0%) skipped=         0 
    -> L=2 2 0 0:     0.000 sec done=        63 (=100.0%) skipped=         0 
    ->Total SHARK integral loop time =    0.004 sec
    -> L=0 1 2 2:     0.001 sec done=        72 (=100.0%) skipped=         0 
    -> L=0 2 2 2:     0.000 sec done=        36 (=100.0%) skipped=         0 
    -> L=1 1 1 2:     0.001 sec done=        80 (=100.0%) skipped=         0 
    -> L=1 1 2 2:     0.000 sec done=        30 (=100.0%) skipped=         0 
    -> L=1 2 1 2:     0.000 sec done=        36 (=100.0%) skipped=         0 
    -> L=1 2 2 2:     0.001 sec done=        24 (=100.0%) skipped=         0 
    -> L=2 2 2 2:     0.000 sec done=         6 (=100.0%) skipped=         0 
    ->Total LIBINT loop time =    0.003 sec

                         ----------------------------
                         !        ITERATION     5   !
                         ----------------------------
   Total Energy        :      -1.132460355433 Eh
   Energy Change       :       0.000207207587 Eh
   MAX-DP              :       0.000280668565
   RMS-DP              :       0.000022465387
   Orbital gradient    :       0.000274365494
   Orbital Rotation    :       0.000302606442
   Actual Damping      :       0.0000

===> SHARK/Fock/General/Sym: HFTyp=1 DoJ=1 DoX=1 facj= 2.000 facx=-0.500 NFock=1 NumOp=1 NMat=1 RangeSep=0 GeneralContraction=0 PGCOpt=-1
    -> L=0 0 0 0:     0.001 sec done=       231 (=100.0%) skipped=         0 
    -> L=1 0 0 0:     0.000 sec done=       504 (=100.0%) skipped=         0 
    -> L=1 0 1 0:     0.000 sec done=       300 (=100.0%) skipped=         0 
    -> L=1 1 0 0:     0.001 sec done=       210 (=100.0%) skipped=         0 
    -> L=1 1 1 0:     0.000 sec done=       240 (=100.0%) skipped=         0 
    -> L=1 1 1 1:     0.000 sec done=        55 (=100.0%) skipped=         0 
    -> L=2 0 0 0:     0.000 sec done=       252 (=100.0%) skipped=         0 
    -> RHF LowL loop time =     0.003 sec
    -> L=2 0 1 0:     0.001 sec done=       288 (=100.0%) skipped=         0 
    -> L=2 0 1 1:     0.000 sec done=       120 (=100.0%) skipped=         0 
    -> L=2 0 2 0:     0.001 sec done=        78 (=100.0%) skipped=         0 
    -> L=2 1 0 0:     0.000 sec done=       168 (=100.0%) skipped=         0 
    -> L=2 1 1 0:     0.001 sec done=       192 (=100.0%) skipped=         0 
    -> L=2 1 2 0:     0.000 sec done=        96 (=100.0%) skipped=         0 
    -> L=2 2 0 0:     0.001 sec done=        63 (=100.0%) skipped=         0 
    ->Total SHARK integral loop time =    0.004 sec
    -> L=0 1 2 2:     0.000 sec done=        72 (=100.0%) skipped=         0 
    -> L=0 2 2 2:     0.000 sec done=        36 (=100.0%) skipped=         0 
    -> L=1 1 1 2:     0.001 sec done=        80 (=100.0%) skipped=         0 
    -> L=1 1 2 2:     0.000 sec done=        30 (=100.0%) skipped=         0 
    -> L=1 2 1 2:     0.000 sec done=        36 (=100.0%) skipped=         0 
    -> L=1 2 2 2:     0.001 sec done=        24 (=100.0%) skipped=         0 
    -> L=2 2 2 2:     0.000 sec done=         6 (=100.0%) skipped=         0 
    ->Total LIBINT loop time =    0.002 sec

                         ----------------------------
                         !        ITERATION     6   !
                         ----------------------------
   Total Energy        :      -1.132460563347 Eh
   Energy Change       :      -0.000000207914 Eh
   MAX-DP              :       0.000088608838
   RMS-DP              :       0.000006977977
   Orbital gradient    :       0.000061564549
   Orbital Rotation    :       0.000088299009
   Actual Damping      :       0.0000

===> SHARK/Fock/General/Sym: HFTyp=1 DoJ=1 DoX=1 facj= 2.000 facx=-0.500 NFock=1 NumOp=1 NMat=1 RangeSep=0 GeneralContraction=0 PGCOpt=-1
    -> L=0 0 0 0:     0.000 sec done=       231 (=100.0%) skipped=         0 
    -> L=1 0 0 0:     0.001 sec done=       504 (=100.0%) skipped=         0 
    -> L=1 0 1 0:     0.000 sec done=       300 (=100.0%) skipped=         0 
    -> L=1 1 0 0:     0.000 sec done=       210 (=100.0%) skipped=         0 
    -> L=1 1 1 0:     0.001 sec done=       240 (=100.0%) skipped=         0 
    -> L=1 1 1 1:     0.000 sec done=        55 (=100.0%) skipped=         0 
    -> L=2 0 0 0:     0.000 sec done=       252 (=100.0%) skipped=         0 
    -> RHF LowL loop time =     0.002 sec
    -> L=2 0 1 0:     0.001 sec done=       288 (=100.0%) skipped=         0 
    -> L=2 0 1 1:     0.000 sec done=       120 (=100.0%) skipped=         0 
    -> L=2 0 2 0:     0.001 sec done=        78 (=100.0%) skipped=         0 
    -> L=2 1 0 0:     0.000 sec done=       168 (=100.0%) skipped=         0 
    -> L=2 1 1 0:     0.000 sec done=       192 (=100.0%) skipped=         0 
    -> L=2 1 2 0:     0.001 sec done=        96 (=100.0%) skipped=         0 
    -> L=2 2 0 0:     0.000 sec done=        63 (=100.0%) skipped=         0 
    ->Total SHARK integral loop time =    0.003 sec
    -> L=0 1 2 2:     0.000 sec done=        72 (=100.0%) skipped=         0 
    -> L=0 2 2 2:     0.001 sec done=        36 (=100.0%) skipped=         0 
    -> L=1 1 1 2:     0.000 sec done=        80 (=100.0%) skipped=         0 
    -> L=1 1 2 2:     0.000 sec done=        30 (=100.0%) skipped=         0 
    -> L=1 2 1 2:     0.000 sec done=        36 (=100.0%) skipped=         0 
    -> L=1 2 2 2:     0.001 sec done=        24 (=100.0%) skipped=         0 
    -> L=2 2 2 2:     0.000 sec done=         6 (=100.0%) skipped=         0 
    ->Total LIBINT loop time =    0.002 sec
                  ***Gradient check signals convergence***
              ***Rediagonalizing the Fockian in SOSCF/NRSCF***

               *****************************************************
               *                     SUCCESS                       *
               *           SCF CONVERGED AFTER   7 CYCLES          *
               *****************************************************


----------------
TOTAL SCF ENERGY
----------------

Total Energy       :           -1.13246057 Eh             -30.81582 eV

Components:
Nuclear Repulsion  :            0.74742203 Eh              20.33839 eV
Electronic Energy  :           -1.87988261 Eh             -51.15421 eV
One Electron Energy:           -2.55025620 Eh             -69.39600 eV
Two Electron Energy:            0.67037359 Eh              18.24179 eV

Virial components:
Potential Energy   :           -2.29054204 Eh             -62.32882 eV
Kinetic Energy     :            1.15808147 Eh              31.51300 eV
Virial Ratio       :            1.97787643


---------------
SCF CONVERGENCE
---------------

  Last Energy change         ...   -1.1613e-08  Tolerance :   1.0000e-08
  Last MAX-Density change    ...    8.5464e-07  Tolerance :   1.0000e-07
  Last RMS-Density change    ...    7.1227e-08  Tolerance :   5.0000e-09
  Last Orbital Gradient      ...    1.5994e-06  Tolerance :   1.0000e-05
  Last Orbital Rotation      ...    9.4356e-07  Tolerance :   1.0000e-05

             **** THE GBW FILE WAS UPDATED (H2.gbw) ****
             **** DENSITY H2.scfp WAS UPDATED ****
             **** ENERGY FILE WAS UPDATED (H2.en.tmp) ****
             **** THE GBW FILE WAS UPDATED (H2.gbw) ****
             **** DENSITY H2.scfp WAS UPDATED ****
----------------
ORBITAL ENERGIES
----------------

  NO   OCC          E(Eh)            E(eV) 
   0   2.0000      -0.604755       -16.4562 
   1   0.0000       0.171624         4.6701 
   2   0.0000       0.302012         8.2182 
   3   0.0000       0.656222        17.8567 
   4   0.0000       0.696322        18.9479 
   5   0.0000       0.696322        18.9479 
   6   0.0000       1.104873        30.0651 
   7   0.0000       1.125033        30.6137 
   8   0.0000       1.125033        30.6137 
   9   0.0000       1.539900        41.9028 
  10   0.0000       2.344722        63.8031 
  11   0.0000       2.389548        65.0229 
  12   0.0000       3.180451        86.5445 
  13   0.0000       3.180451        86.5445 
  14   0.0000       3.430819        93.3573 
  15   0.0000       3.430819        93.3573 
  16   0.0000       3.685292       100.2819 
  17   0.0000       3.863746       105.1379 
  18   0.0000       3.863746       105.1379 
  19   0.0000       4.119468       112.0964 
  20   0.0000       4.119468       112.0964 
  21   0.0000       4.145985       112.8180 
  22   0.0000       4.145985       112.8180 
  23   0.0000       4.766559       129.7047 
  24   0.0000       5.862352       159.5227 
  25   0.0000       5.862352       159.5227 
  26   0.0000       5.947133       161.8297 
  27   0.0000       7.160047       194.8348 
------------------
MOLECULAR ORBITALS
------------------
                      0         1         2         3         4         5   
                  -0.60475   0.17162   0.30201   0.65622   0.69632   0.69632
                   2.00000   0.00000   0.00000   0.00000   0.00000   0.00000
                  --------  --------  --------  --------  --------  --------
  0H   1s         0.190607  0.058844  0.057359  0.136488 -0.000000 -0.000000
  0H   2s         0.282587 -0.424728  0.723457  2.709112  0.000000  0.000000
  0H   3s         0.129926  2.459694 -0.857292 -2.337545  0.000000  0.000000
  0H   1pz       -0.000000 -0.000000  0.000000 -0.000000 -0.058106  0.000724
  0H   1px        0.012368 -0.037887  0.017439  0.095476  0.000017  0.001357
  0H   1py        0.000289 -0.000885  0.000408  0.002231 -0.000724 -0.058090
  0H   2pz        0.000000  0.000000 -0.000000 -0.000000  0.574261 -0.007155
  0H   2px        0.016521 -0.137296 -0.057466  0.353042 -0.000167 -0.013416
  0H   2py        0.000386 -0.003208 -0.001343  0.008250  0.007153  0.574105
  0H   1dz2      -0.000324  0.010373  0.003875 -0.038493 -0.000000 -0.000000
  0H   1dxz      -0.000000 -0.000000 -0.000000 -0.000000 -0.007709  0.000096
  0H   1dyz       0.000000  0.000000  0.000000 -0.000000 -0.000180  0.000002
  0H   1dx2y2     0.000561 -0.017946 -0.006704  0.066600  0.000004  0.000360
  0H   1dxy       0.000026 -0.000839 -0.000313  0.003114 -0.000096 -0.007703
  1H   1s         0.190607 -0.058844  0.057359 -0.136488  0.000000  0.000000
  1H   2s         0.282587  0.424728  0.723457 -2.709112 -0.000000 -0.000000
  1H   3s         0.129926 -2.459694 -0.857292  2.337545 -0.000000 -0.000000
  1H   1pz        0.000000 -0.000000  0.000000  0.000000 -0.058106  0.000724
  1H   1px       -0.012368 -0.037887 -0.017439  0.095476  0.000017  0.001357
  1H   1py       -0.000289 -0.000885 -0.000408  0.002231 -0.000724 -0.058090
  1H   2pz       -0.000000 -0.000000  0.000000 -0.000000  0.574261 -0.007155
  1H   2px       -0.016521 -0.137296  0.057466  0.353042 -0.000167 -0.013416
  1H   2py       -0.000386 -0.003208  0.001343  0.008250  0.007153  0.574105
  1H   1dz2      -0.000324 -0.010373  0.003875  0.038493  0.000000  0.000000
  1H   1dxz      -0.000000  0.000000 -0.000000 -0.000000  0.007709 -0.000096
  1H   1dyz       0.000000 -0.000000  0.000000  0.000000  0.000180 -0.000002
  1H   1dx2y2     0.000561  0.017946 -0.006704 -0.066600 -0.000004 -0.000360
  1H   1dxy       0.000026  0.000839 -0.000313 -0.003114  0.000096  0.007703
                      6         7         8         9        10        11   
                   1.10487   1.12503   1.12503   1.53990   2.34472   2.38955
                   0.00000   0.00000   0.00000   0.00000   0.00000   0.00000
                  --------  --------  --------  --------  --------  --------
  0H   1s         0.015708  0.000000  0.000000  0.045587  0.554123  0.958187
  0H   2s         0.672597 -0.000000 -0.000000 14.852259 -2.517541 -0.981046
  0H   3s        -0.360934  0.000000  0.000000 -0.553349  1.322499  0.380334
  0H   1pz        0.000000  0.000702 -0.056241  0.000000  0.000000 -0.000000
  0H   1px        0.100909  0.001314  0.000016  0.121844 -0.601952  0.105293
  0H   1py        0.002358 -0.056225 -0.000702  0.002847 -0.014066  0.002460
  0H   2pz       -0.000000 -0.018524  1.484160  0.000000 -0.000000  0.000000
  0H   2px       -1.109015 -0.034672 -0.000433  6.619249 -0.230727 -0.274577
  0H   2py       -0.025915  1.483755  0.018519  0.154678 -0.005392 -0.006416
  0H   1dz2       0.039922 -0.000000 -0.000000 -0.132427  0.201658 -0.047620
  0H   1dxz      -0.000000 -0.001577  0.126350  0.000000  0.000000 -0.000000
  0H   1dyz      -0.000000 -0.000037  0.002953 -0.000000  0.000000  0.000000
  0H   1dx2y2    -0.069072 -0.005903 -0.000074  0.229120 -0.348901  0.082391
  0H   1dxy      -0.003230  0.126247  0.001576  0.010714 -0.016315  0.003853
  1H   1s         0.015708  0.000000  0.000000 -0.045587 -0.554123  0.958187
  1H   2s         0.672597 -0.000000 -0.000000-14.852259  2.517541 -0.981046
  1H   3s        -0.360934  0.000000  0.000000  0.553349 -1.322499  0.380334
  1H   1pz       -0.000000 -0.000702  0.056241  0.000000  0.000000 -0.000000
  1H   1px       -0.100909 -0.001314 -0.000016  0.121844 -0.601952 -0.105293
  1H   1py       -0.002358  0.056225  0.000702  0.002847 -0.014066 -0.002460
  1H   2pz        0.000000  0.018524 -1.484160 -0.000000  0.000000 -0.000000
  1H   2px        1.109015  0.034672  0.000433  6.619249 -0.230727  0.274577
  1H   2py        0.025915 -1.483755 -0.018519  0.154678 -0.005392  0.006416
  1H   1dz2       0.039922 -0.000000 -0.000000  0.132427 -0.201658 -0.047620
  1H   1dxz      -0.000000 -0.001577  0.126350  0.000000 -0.000000 -0.000000
  1H   1dyz      -0.000000 -0.000037  0.002953  0.000000 -0.000000  0.000000
  1H   1dx2y2    -0.069072 -0.005903 -0.000074 -0.229120  0.348901  0.082391
  1H   1dxy      -0.003230  0.126247  0.001576 -0.010714  0.016315  0.003853
                     12        13        14        15        16        17   
                   3.18045   3.18045   3.43082   3.43082   3.68529   3.86375
                   0.00000   0.00000   0.00000   0.00000   0.00000   0.00000
                  --------  --------  --------  --------  --------  --------
  0H   1s         0.000000 -0.000000  0.000000  0.000000  0.153619 -0.000000
  0H   2s         0.000000 -0.000000 -0.000000 -0.000000  0.236150 -0.000000
  0H   3s         0.000000 -0.000000  0.000000  0.000000 -0.151450  0.000000
  0H   1pz       -0.000000 -0.000000  0.007671 -0.612406 -0.000000  0.005088
  0H   1px        0.000000 -0.000000  0.014307  0.000179  0.795186  0.009666
  0H   1py        0.000000 -0.000000 -0.612239 -0.007669  0.018582 -0.413653
  0H   2pz        0.000000  0.000000 -0.004572  0.365029  0.000000 -0.014758
  0H   2px       -0.000000  0.000000 -0.008528 -0.000107 -0.930069 -0.028038
  0H   2py       -0.000000  0.000000  0.364929  0.004571 -0.021734  1.199837
  0H   1dz2      -0.001448  0.519729  0.000000  0.000000  0.251261 -0.000000
  0H   1dxz       0.014020  0.000039  0.003602 -0.287527  0.000000 -0.011135
  0H   1dyz      -0.599967 -0.001671  0.000084 -0.006719 -0.000000 -0.000260
  0H   1dx2y2    -0.000835  0.299738  0.013434  0.000168 -0.434722 -0.042307
  0H   1dxy      -0.000039  0.014016 -0.287292 -0.003599 -0.020328  0.904747
  1H   1s         0.000000 -0.000000 -0.000000 -0.000000  0.153619 -0.000000
  1H   2s         0.000000 -0.000000  0.000000  0.000000  0.236150 -0.000000
  1H   3s         0.000000 -0.000000 -0.000000 -0.000000 -0.151450  0.000000
  1H   1pz        0.000000  0.000000  0.007671 -0.612406  0.000000 -0.005088
  1H   1px       -0.000000  0.000000  0.014307  0.000179 -0.795186 -0.009666
  1H   1py       -0.000000  0.000000 -0.612239 -0.007669 -0.018582  0.413653
  1H   2pz       -0.000000 -0.000000 -0.004572  0.365029 -0.000000  0.014758
  1H   2px        0.000000 -0.000000 -0.008528 -0.000107  0.930069  0.028038
  1H   2py        0.000000 -0.000000  0.364929  0.004571  0.021734 -1.199837
  1H   1dz2      -0.001448  0.519729 -0.000000 -0.000000  0.251261 -0.000000
  1H   1dxz       0.014020  0.000039 -0.003602  0.287527  0.000000 -0.011135
  1H   1dyz      -0.599967 -0.001671 -0.000084  0.006719  0.000000 -0.000260
  1H   1dx2y2    -0.000835  0.299738 -0.013434 -0.000168 -0.434722 -0.042307
  1H   1dxy      -0.000039  0.014016  0.287292  0.003599 -0.020328  0.904747
                     18        19        20        21        22        23   
                   3.86375   4.11947   4.11947   4.14598   4.14598   4.76656
                   0.00000   0.00000   0.00000   0.00000   0.00000   0.00000
                  --------  --------  --------  --------  --------  --------
  0H   1s        -0.000000 -0.000000  0.000000  0.000000  0.000000  0.738752
  0H   2s        -0.000000 -0.000000  0.000000 -0.000000 -0.000000  8.016102
  0H   3s         0.000000  0.000000 -0.000000 -0.000000 -0.000000  0.034310
  0H   1pz       -0.413766 -0.000000 -0.000000  0.007916 -0.630423 -0.000000
  0H   1px        0.000119 -0.000000  0.000000  0.014728  0.000185 -0.245585
  0H   1py       -0.005087  0.000000 -0.000000 -0.630251 -0.007914 -0.005739
  0H   2pz        1.200165  0.000000  0.000000 -0.002910  0.231721 -0.000000
  0H   2px       -0.000345 -0.000000  0.000000 -0.005413 -0.000068  3.962965
  0H   2py        0.014754 -0.000000  0.000000  0.231657  0.002909  0.092606
  0H   1dz2      -0.000000 -0.000226  0.782955 -0.000000 -0.000000 -0.466650
  0H   1dxz       0.905489  0.021121  0.000006 -0.007522  0.599013  0.000000
  0H   1dyz       0.021159 -0.903831 -0.000260 -0.000176  0.013998 -0.000000
  0H   1dx2y2    -0.000520 -0.000130  0.451546 -0.027988 -0.000351  0.807379
  0H   1dxy       0.011126 -0.000006  0.021115  0.598522  0.007515  0.037754
  1H   1s        -0.000000  0.000000 -0.000000 -0.000000 -0.000000 -0.738752
  1H   2s        -0.000000  0.000000 -0.000000  0.000000  0.000000 -8.016102
  1H   3s         0.000000 -0.000000  0.000000  0.000000  0.000000 -0.034310
  1H   1pz        0.413766 -0.000000 -0.000000  0.007916 -0.630423 -0.000000
  1H   1px       -0.000119 -0.000000  0.000000  0.014728  0.000185 -0.245585
  1H   1py        0.005087  0.000000 -0.000000 -0.630251 -0.007914 -0.005739
  1H   2pz       -1.200165  0.000000  0.000000 -0.002910  0.231721  0.000000
  1H   2px        0.000345 -0.000000  0.000000 -0.005413 -0.000068  3.962965
  1H   2py       -0.014754 -0.000000  0.000000  0.231657  0.002909  0.092606
  1H   1dz2      -0.000000  0.000226 -0.782955  0.000000  0.000000  0.466650
  1H   1dxz       0.905489 -0.021121 -0.000006  0.007522 -0.599013 -0.000000
  1H   1dyz       0.021159  0.903831  0.000260  0.000176 -0.013998  0.000000
  1H   1dx2y2    -0.000520  0.000130 -0.451546  0.027988  0.000351 -0.807379
  1H   1dxy       0.011126  0.000006 -0.021115 -0.598522 -0.007515 -0.037754
                     24        25        26        27   
                   5.86235   5.86235   5.94713   7.16005
                   0.00000   0.00000   0.00000   0.00000
                  --------  --------  --------  --------
  0H   1s         0.000000  0.000000 -1.297589  1.809904
  0H   2s        -0.000000 -0.000000  0.626135  4.425120
  0H   3s         0.000000  0.000000 -0.105836 -0.635461
  0H   1pz       -0.015325  1.215536 -0.000000  0.000000
  0H   1px       -0.028397 -0.000358  0.076635  2.047744
  0H   1py        1.215205  0.015320  0.001791  0.047851
  0H   2pz       -0.006458  0.512216 -0.000000 -0.000000
  0H   2px       -0.011966 -0.000151  0.745808  1.629248
  0H   2py        0.512076  0.006456  0.017428  0.038072
  0H   1dz2       0.000000  0.000000 -0.579455 -0.493414
  0H   1dxz      -0.017804  1.412196 -0.000000  0.000000
  0H   1dyz      -0.000416  0.033000 -0.000000 -0.000000
  0H   1dx2y2    -0.065982 -0.000832  1.002550  0.853685
  0H   1dxy       1.411040  0.017789  0.046880  0.039919
  1H   1s         0.000000  0.000000 -1.297589 -1.809904
  1H   2s        -0.000000 -0.000000  0.626135 -4.425120
  1H   3s         0.000000  0.000000 -0.105836  0.635461
  1H   1pz        0.015325 -1.215536  0.000000 -0.000000
  1H   1px        0.028397  0.000358 -0.076635  2.047744
  1H   1py       -1.215205 -0.015320 -0.001791  0.047851
  1H   2pz        0.006458 -0.512216  0.000000  0.000000
  1H   2px        0.011966  0.000151 -0.745808  1.629248
  1H   2py       -0.512076 -0.006456 -0.017428  0.038072
  1H   1dz2       0.000000  0.000000 -0.579455  0.493414
  1H   1dxz      -0.017804  1.412196 -0.000000 -0.000000
  1H   1dyz      -0.000416  0.033000 -0.000000  0.000000
  1H   1dx2y2    -0.065982 -0.000832  1.002550 -0.853685
  1H   1dxy       1.411040  0.017789  0.046880 -0.039919


-------
DENSITY
-------
                  0          1          2          3          4          5    
      0       0.072662   0.107726   0.049529  -0.000000   0.004715   0.000110
      1       0.107726   0.159711   0.073431  -0.000000   0.006990   0.000163
      2       0.049529   0.073431   0.033762  -0.000000   0.003214   0.000075
      3      -0.000000  -0.000000  -0.000000   0.000000  -0.000000  -0.000000
      4       0.004715   0.006990   0.003214  -0.000000   0.000306   0.000007
      5       0.000110   0.000163   0.000075  -0.000000   0.000007   0.000000
      6       0.000000   0.000000   0.000000  -0.000000   0.000000   0.000000
      7       0.006298   0.009337   0.004293  -0.000000   0.000409   0.000010
      8       0.000147   0.000218   0.000100  -0.000000   0.000010   0.000000
      9      -0.000124  -0.000183  -0.000084   0.000000  -0.000008  -0.000000
     10      -0.000000  -0.000000  -0.000000   0.000000  -0.000000  -0.000000
     11       0.000000   0.000000   0.000000  -0.000000   0.000000   0.000000
     12       0.000214   0.000317   0.000146  -0.000000   0.000014   0.000000
     13       0.000010   0.000015   0.000007  -0.000000   0.000001   0.000000
     14       0.072662   0.107726   0.049529  -0.000000   0.004715   0.000110
     15       0.107726   0.159711   0.073431  -0.000000   0.006990   0.000163
     16       0.049529   0.073431   0.033762  -0.000000   0.003214   0.000075
     17       0.000000   0.000000   0.000000  -0.000000   0.000000   0.000000
     18      -0.004715  -0.006990  -0.003214   0.000000  -0.000306  -0.000007
     19      -0.000110  -0.000163  -0.000075   0.000000  -0.000007  -0.000000
     20      -0.000000  -0.000000  -0.000000   0.000000  -0.000000  -0.000000
     21      -0.006298  -0.009337  -0.004293   0.000000  -0.000409  -0.000010
     22      -0.000147  -0.000218  -0.000100   0.000000  -0.000010  -0.000000
     23      -0.000124  -0.000183  -0.000084   0.000000  -0.000008  -0.000000
     24      -0.000000  -0.000000  -0.000000   0.000000  -0.000000  -0.000000
     25       0.000000   0.000000   0.000000  -0.000000   0.000000   0.000000
     26       0.000214   0.000317   0.000146  -0.000000   0.000014   0.000000
     27       0.000010   0.000015   0.000007  -0.000000   0.000001   0.000000
                  6          7          8          9         10         11    
      0       0.000000   0.006298   0.000147  -0.000124  -0.000000   0.000000
      1       0.000000   0.009337   0.000218  -0.000183  -0.000000   0.000000
      2       0.000000   0.004293   0.000100  -0.000084  -0.000000   0.000000
      3      -0.000000  -0.000000  -0.000000   0.000000   0.000000  -0.000000
      4       0.000000   0.000409   0.000010  -0.000008  -0.000000   0.000000
      5       0.000000   0.000010   0.000000  -0.000000  -0.000000   0.000000
      6       0.000000   0.000000   0.000000  -0.000000  -0.000000   0.000000
      7       0.000000   0.000546   0.000013  -0.000011  -0.000000   0.000000
      8       0.000000   0.000013   0.000000  -0.000000  -0.000000   0.000000
      9      -0.000000  -0.000011  -0.000000   0.000000   0.000000  -0.000000
     10      -0.000000  -0.000000  -0.000000   0.000000   0.000000  -0.000000
     11       0.000000   0.000000   0.000000  -0.000000  -0.000000   0.000000
     12       0.000000   0.000019   0.000000  -0.000000  -0.000000   0.000000
     13       0.000000   0.000001   0.000000  -0.000000  -0.000000   0.000000
     14       0.000000   0.006298   0.000147  -0.000124  -0.000000   0.000000
     15       0.000000   0.009337   0.000218  -0.000183  -0.000000   0.000000
     16       0.000000   0.004293   0.000100  -0.000084  -0.000000   0.000000
     17       0.000000   0.000000   0.000000  -0.000000  -0.000000   0.000000
     18      -0.000000  -0.000409  -0.000010   0.000008   0.000000  -0.000000
     19      -0.000000  -0.000010  -0.000000   0.000000   0.000000  -0.000000
     20      -0.000000  -0.000000  -0.000000   0.000000   0.000000  -0.000000
     21      -0.000000  -0.000546  -0.000013   0.000011   0.000000  -0.000000
     22      -0.000000  -0.000013  -0.000000   0.000000   0.000000  -0.000000
     23      -0.000000  -0.000011  -0.000000   0.000000   0.000000  -0.000000
     24      -0.000000  -0.000000  -0.000000   0.000000   0.000000  -0.000000
     25       0.000000   0.000000   0.000000  -0.000000  -0.000000   0.000000
     26       0.000000   0.000019   0.000000  -0.000000  -0.000000   0.000000
     27       0.000000   0.000001   0.000000  -0.000000  -0.000000   0.000000
                 12         13         14         15         16         17    
      0       0.000214   0.000010   0.072662   0.107726   0.049529   0.000000
      1       0.000317   0.000015   0.107726   0.159711   0.073431   0.000000
      2       0.000146   0.000007   0.049529   0.073431   0.033762   0.000000
      3      -0.000000  -0.000000  -0.000000  -0.000000  -0.000000  -0.000000
      4       0.000014   0.000001   0.004715   0.006990   0.003214   0.000000
      5       0.000000   0.000000   0.000110   0.000163   0.000075   0.000000
      6       0.000000   0.000000   0.000000   0.000000   0.000000   0.000000
      7       0.000019   0.000001   0.006298   0.009337   0.004293   0.000000
      8       0.000000   0.000000   0.000147   0.000218   0.000100   0.000000
      9      -0.000000  -0.000000  -0.000124  -0.000183  -0.000084  -0.000000
     10      -0.000000  -0.000000  -0.000000  -0.000000  -0.000000  -0.000000
     11       0.000000   0.000000   0.000000   0.000000   0.000000   0.000000
     12       0.000001   0.000000   0.000214   0.000317   0.000146   0.000000
     13       0.000000   0.000000   0.000010   0.000015   0.000007   0.000000
     14       0.000214   0.000010   0.072662   0.107726   0.049529   0.000000
     15       0.000317   0.000015   0.107726   0.159711   0.073431   0.000000
     16       0.000146   0.000007   0.049529   0.073431   0.033762   0.000000
     17       0.000000   0.000000   0.000000   0.000000   0.000000   0.000000
     18      -0.000014  -0.000001  -0.004715  -0.006990  -0.003214  -0.000000
     19      -0.000000  -0.000000  -0.000110  -0.000163  -0.000075  -0.000000
     20      -0.000000  -0.000000  -0.000000  -0.000000  -0.000000  -0.000000
     21      -0.000019  -0.000001  -0.006298  -0.009337  -0.004293  -0.000000
     22      -0.000000  -0.000000  -0.000147  -0.000218  -0.000100  -0.000000
     23      -0.000000  -0.000000  -0.000124  -0.000183  -0.000084  -0.000000
     24      -0.000000  -0.000000  -0.000000  -0.000000  -0.000000  -0.000000
     25       0.000000   0.000000   0.000000   0.000000   0.000000   0.000000
     26       0.000001   0.000000   0.000214   0.000317   0.000146   0.000000
[...]
Auxiliary Correlation fitting basis         ... NOT available
Auxiliary 'external' fitting basis          ... NOT available
Integral threshold                          ...     2.500000e-11
Primitive cut-off                           ...     2.500000e-12
Primitive pair pre-selection threshold      ...     2.500000e-12

	<< Calculating on displaced geometry   5 (of  12) >>
SHARK General Contraction Test:  Segmented basis detected
   -> Pre-screening matrix found on disk - Trying to read with NShells=12
   -> Passing Pre-screening matrix on to SHARK ...ok
   -> Leaving CheckPreScreeningMatrix
----------------------
SHARK INTEGRAL PACKAGE
----------------------

Number of atoms                             ...      2
Number of basis functions                   ...     28
Number of shells                            ...     12
Maximum angular momentum                    ...      2
Integral batch strategy                     ... SHARK/LIBINT Hybrid
RI-J (if used) integral strategy            ... SPLIT-RIJ (Revised 2003 algorithm where possible)
Printlevel                                  ...      2
Contraction scheme used                     ... SEGMENTED contraction
Coulomb Range Separation                    ... NOT USED
Exchange Range Separation                   ... NOT USED
Finite Nucleus Model                        ... NOT USED
Auxiliary Coulomb fitting basis             ... NOT available
Auxiliary J/K fitting basis                 ... NOT available
Auxiliary Correlation fitting basis         ... NOT available
Auxiliary 'external' fitting basis          ... NOT available
Integral threshold                          ...     2.500000e-11
Primitive cut-off                           ...     2.500000e-12
Primitive pair pre-selection threshold      ...     2.500000e-12

	<< Calculating on displaced geometry   6 (of  12) >>
SHARK General Contraction Test:  Segmented basis detected
   -> Pre-screening matrix found on disk - Trying to read with NShells=12
   -> Passing Pre-screening matrix on to SHARK ...ok
   -> Leaving CheckPreScreeningMatrix
----------------------
SHARK INTEGRAL PACKAGE
----------------------

Number of atoms                             ...      2
Number of basis functions                   ...     28
Number of shells                            ...     12
Maximum angular momentum                    ...      2
Integral batch strategy                     ... SHARK/LIBINT Hybrid
RI-J (if used) integral strategy            ... SPLIT-RIJ (Revised 2003 algorithm where possible)
Printlevel                                  ...      2
Contraction scheme used                     ... SEGMENTED contraction
Coulomb Range Separation                    ... NOT USED
Exchange Range Separation                   ... NOT USED
Finite Nucleus Model                        ... NOT USED
Auxiliary Coulomb fitting basis             ... NOT available
Auxiliary J/K fitting basis                 ... NOT available
Auxiliary Correlation fitting basis         ... NOT available
Auxiliary 'external' fitting basis          ... NOT available
Integral threshold                          ...     2.500000e-11
Primitive cut-off                           ...     2.500000e-12
Primitive pair pre-selection threshold      ...     2.500000e-12

	<< Calculating on displaced geometry   7 (of  12) >>
SHARK General Contraction Test:  Segmented basis detected
   -> Pre-screening matrix found on disk - Trying to read with NShells=12
   -> Passing Pre-screening matrix on to SHARK ...ok
   -> Leaving CheckPreScreeningMatrix
----------------------
SHARK INTEGRAL PACKAGE
----------------------

Number of atoms                             ...      2
Number of basis functions                   ...     28
Number of shells                            ...     12
Maximum angular momentum                    ...      2
Integral batch strategy                     ... SHARK/LIBINT Hybrid
RI-J (if used) integral strategy            ... SPLIT-RIJ (Revised 2003 algorithm where possible)
Printlevel                                  ...      2
Contraction scheme used                     ... SEGMENTED contraction
Coulomb Range Separation                    ... NOT USED
Exchange Range Separation                   ... NOT USED
Finite Nucleus Model                        ... NOT USED
Auxiliary Coulomb fitting basis             ... NOT available
Auxiliary J/K fitting basis                 ... NOT available
Auxiliary Correlation fitting basis         ... NOT available
Auxiliary 'external' fitting basis          ... NOT available
Integral threshold                          ...     2.500000e-11
Primitive cut-off                           ...     2.500000e-12
Primitive pair pre-selection threshold      ...     2.500000e-12

	<< Calculating on displaced geometry   8 (of  12) >>
SHARK General Contraction Test:  Segmented basis detected
   -> Pre-screening matrix found on disk - Trying to read with NShells=12
   -> Passing Pre-screening matrix on to SHARK ...ok
   -> Leaving CheckPreScreeningMatrix
----------------------
SHARK INTEGRAL PACKAGE
----------------------

Number of atoms                             ...      2
Number of basis functions                   ...     28
Number of shells                            ...     12
Maximum angular momentum                    ...      2
Integral batch strategy                     ... SHARK/LIBINT Hybrid
RI-J (if used) integral strategy            ... SPLIT-RIJ (Revised 2003 algorithm where possible)
Printlevel                                  ...      2
Contraction scheme used                     ... SEGMENTED contraction
Coulomb Range Separation                    ... NOT USED
Exchange Range Separation                   ... NOT USED
Finite Nucleus Model                        ... NOT USED
Auxiliary Coulomb fitting basis             ... NOT available
Auxiliary J/K fitting basis                 ... NOT available
Auxiliary Correlation fitting basis         ... NOT available
Auxiliary 'external' fitting basis          ... NOT available
Integral threshold                          ...     2.500000e-11
Primitive cut-off                           ...     2.500000e-12
Primitive pair pre-selection threshold      ...     2.500000e-12

	<< Calculating on displaced geometry   9 (of  12) >>
SHARK General Contraction Test:  Segmented basis detected
   -> Pre-screening matrix found on disk - Trying to read with NShells=12
   -> Passing Pre-screening matrix on to SHARK ...ok
   -> Leaving CheckPreScreeningMatrix
----------------------
SHARK INTEGRAL PACKAGE
----------------------

Number of atoms                             ...      2
Number of basis functions                   ...     28
Number of shells                            ...     12
Maximum angular momentum                    ...      2
Integral batch strategy                     ... SHARK/LIBINT Hybrid
RI-J (if used) integral strategy            ... SPLIT-RIJ (Revised 2003 algorithm where possible)
Printlevel                                  ...      2
Contraction scheme used                     ... SEGMENTED contraction
Coulomb Range Separation                    ... NOT USED
Exchange Range Separation                   ... NOT USED
Finite Nucleus Model                        ... NOT USED
Auxiliary Coulomb fitting basis             ... NOT available
Auxiliary J/K fitting basis                 ... NOT available
Auxiliary Correlation fitting basis         ... NOT available
Auxiliary 'external' fitting basis          ... NOT available
Integral threshold                          ...     2.500000e-11
Primitive cut-off                           ...     2.500000e-12
Primitive pair pre-selection threshold      ...     2.500000e-12

	<< Calculating on displaced geometry  10 (of  12) >>
SHARK General Contraction Test:  Segmented basis detected
   -> Pre-screening matrix found on disk - Trying to read with NShells=12
   -> Passing Pre-screening matrix on to SHARK ...ok
   -> Leaving CheckPreScreeningMatrix
----------------------
SHARK INTEGRAL PACKAGE
----------------------

Number of atoms                             ...      2
Number of basis functions                   ...     28
Number of shells                            ...     12
Maximum angular momentum                    ...      2
Integral batch strategy                     ... SHARK/LIBINT Hybrid
RI-J (if used) integral strategy            ... SPLIT-RIJ (Revised 2003 algorithm where possible)
Printlevel                                  ...      2
Contraction scheme used                     ... SEGMENTED contraction
Coulomb Range Separation                    ... NOT USED
Exchange Range Separation                   ... NOT USED
Finite Nucleus Model                        ... NOT USED
Auxiliary Coulomb fitting basis             ... NOT available
Auxiliary J/K fitting basis                 ... NOT available
Auxiliary Correlation fitting basis         ... NOT available
Auxiliary 'external' fitting basis          ... NOT available
Integral threshold                          ...     2.500000e-11
Primitive cut-off                           ...     2.500000e-12
Primitive pair pre-selection threshold      ...     2.500000e-12

	<< Calculating on displaced geometry  11 (of  12) >>
SHARK General Contraction Test:  Segmented basis detected
   -> Pre-screening matrix found on disk - Trying to read with NShells=12
   -> Passing Pre-screening matrix on to SHARK ...ok
   -> Leaving CheckPreScreeningMatrix
----------------------
SHARK INTEGRAL PACKAGE
----------------------

Number of atoms                             ...      2
Number of basis functions                   ...     28
Number of shells                            ...     12
Maximum angular momentum                    ...      2
Integral batch strategy                     ... SHARK/LIBINT Hybrid
RI-J (if used) integral strategy            ... SPLIT-RIJ (Revised 2003 algorithm where possible)
Printlevel                                  ...      2
Contraction scheme used                     ... SEGMENTED contraction
Coulomb Range Separation                    ... NOT USED
Exchange Range Separation                   ... NOT USED
Finite Nucleus Model                        ... NOT USED
Auxiliary Coulomb fitting basis             ... NOT available
Auxiliary J/K fitting basis                 ... NOT available
Auxiliary Correlation fitting basis         ... NOT available
Auxiliary 'external' fitting basis          ... NOT available
Integral threshold                          ...     2.500000e-11
Primitive cut-off                           ...     2.500000e-12
Primitive pair pre-selection threshold      ...     2.500000e-12

	<< Calculating on displaced geometry  12 (of  12) >>
SHARK General Contraction Test:  Segmented basis detected
   -> Pre-screening matrix found on disk - Trying to read with NShells=12
   -> Passing Pre-screening matrix on to SHARK ...ok
   -> Leaving CheckPreScreeningMatrix
----------------------
SHARK INTEGRAL PACKAGE
----------------------

Number of atoms                             ...      2
Number of basis functions                   ...     28
Number of shells                            ...     12
Maximum angular momentum                    ...      2
Integral batch strategy                     ... SHARK/LIBINT Hybrid
RI-J (if used) integral strategy            ... SPLIT-RIJ (Revised 2003 algorithm where possible)
Printlevel                                  ...      2
Contraction scheme used                     ... SEGMENTED contraction
Coulomb Range Separation                    ... NOT USED
Exchange Range Separation                   ... NOT USED
Finite Nucleus Model                        ... NOT USED
Auxiliary Coulomb fitting basis             ... NOT available
Auxiliary J/K fitting basis                 ... NOT available
Auxiliary Correlation fitting basis         ... NOT available
Auxiliary 'external' fitting basis          ... NOT available
Integral threshold                          ...     2.500000e-11
Primitive cut-off                           ...     2.500000e-12
Primitive pair pre-selection threshold      ...     2.500000e-12


-----------------------
VIBRATIONAL FREQUENCIES
-----------------------

Scaling factor for frequencies =  1.000000000 (already applied!)

   0:         0.00 cm**-1
   1:         0.00 cm**-1
   2:         0.00 cm**-1
   3:         0.00 cm**-1
   4:         0.00 cm**-1
   5:      4528.56 cm**-1


------------
NORMAL MODES
------------

These modes are the cartesian displacements weighted by the diagonal matrix
M(i,i)=1/sqrt(m[i]) where m[i] is the mass of the displaced atom
Thus, these vectors are normalized but *not* orthogonal

                  0          1          2          3          4          5    
      0       0.000000   0.000000   0.000000   0.000000   0.000000   0.706914
      1       0.000000   0.000000   0.000000   0.000000   0.000000   0.016519
      2       0.000000   0.000000   0.000000   0.000000   0.000000   0.000000
      3       0.000000   0.000000   0.000000   0.000000   0.000000  -0.706914
      4       0.000000   0.000000   0.000000   0.000000   0.000000  -0.016519
      5       0.000000   0.000000   0.000000   0.000000   0.000000   0.000000


-----------
IR SPECTRUM
-----------

 Mode   freq       eps      Int      T**2         TX        TY        TZ
       cm**-1   L/(mol*cm) km/mol    a.u.
----------------------------------------------------------------------------
  5:   4528.56   0.000000    0.00  0.000000  ( 0.000000 -0.000000 -0.000000)

* The epsilon (eps) is given for a Dirac delta lineshape.
** The dipole moment derivative (T) already includes vibrational overlap.

The first frequency considered to be a vibration is 5
The total number of vibrations considered is 1


--------------------------
THERMOCHEMISTRY AT 298.15K
--------------------------

Temperature         ... 298.15 K
Pressure            ... 1.00 atm
Total Mass          ... 2.02 AMU
The molecule is recognized as being linear

Throughout the following assumptions are being made:
  (1) The electronic state is orbitally nondegenerate
  (2) There are no thermally accessible electronically excited states
  (3) Hindered rotations indicated by low frequency modes are not
      treated as such but are treated as vibrations and this may
      cause some error
  (4) All equations used are the standard statistical mechanics
      equations for an ideal gas
  (5) All vibrations are strictly harmonic

freq.    4528.56  E(vib)   ...       0.00 

------------
INNER ENERGY
------------

The inner energy is: U= E(el) + E(ZPE) + E(vib) + E(rot) + E(trans)
    E(el)   - is the total energy from the electronic structure calculation
              = E(kin-el) + E(nuc-el) + E(el-el) + E(nuc-nuc)
    E(ZPE)  - the the zero temperature vibrational energy from the frequency calculation
    E(vib)  - the the finite temperature correction to E(ZPE) due to population
              of excited vibrational states
    E(rot)  - is the rotational thermal energy
    E(trans)- is the translational thermal energy

Summary of contributions to the inner energy U:
Electronic energy                ...     -1.16464978 Eh
Zero point energy                ...      0.01031682 Eh       6.47 kcal/mol
Thermal vibrational correction   ...      0.00000000 Eh       0.00 kcal/mol
Thermal rotational correction    ...      0.00094418 Eh       0.59 kcal/mol
Thermal translational correction ...      0.00141627 Eh       0.89 kcal/mol
-----------------------------------------------------------------------
Total thermal energy                     -1.15197251 Eh


Summary of corrections to the electronic energy:
(perhaps to be used in another calculation)
Total thermal correction                  0.00236045 Eh       1.48 kcal/mol
Non-thermal (ZPE) correction              0.01031682 Eh       6.47 kcal/mol
-----------------------------------------------------------------------
Total correction                          0.01267727 Eh       7.96 kcal/mol


--------
ENTHALPY
--------

The enthalpy is H = U + kB*T
                kB is Boltzmann's constant
Total free energy                 ...     -1.15197251 Eh 
Thermal Enthalpy correction       ...      0.00094421 Eh       0.59 kcal/mol
-----------------------------------------------------------------------
Total Enthalpy                    ...     -1.15102830 Eh

The point group will now be determined using a tolerance of 1.0000e-04.

WARNING (ORCA_SYM): The standard basis set is uninitialized at this point.
The point group is determined without considering basis set information.

Splitting atom subsets according to nuclear charge, mass and basis set.
Splitting atom subsets according to distance from the molecule's center.
Identifying relative distance patterns of the atoms.
Splitting atom subsets according to atoms' relative distance patterns.
Bring atoms of each subset into input order.
The molecule is linear.
The molecule has a center of inversion.
No further test is needed for point group Dinfh.
This point group has been found:    Dinfh
Largest non-degenerate subgroup:    D2h


Symmetry-perfected Cartesians (point groups Dinfh and D2h):

Atom          Symmetry-perfected Cartesians (x, y, z; au)
  0       0.000000000000    0.000000000000   -0.696380637266
  1       0.000000000000    0.000000000000    0.696380637266


Note: Rotational entropy computed according to Herzberg 
Infrared and Raman Spectra, Chapter V,1, Van Nostrand Reinhold, 1945 
Point Group:  Dinfh, Symmetry Number:   2  
Rotational constants in cm-1:     0.000000    61.575896    61.575896 

Vibrational entropy computed according to the QRRHO of S. Grimme
Chem.Eur.J. 2012 18 9955


-------
ENTROPY
-------

The entropy contributions are T*S = T*(S(el)+S(vib)+S(rot)+S(trans))
     S(el)   - electronic entropy
     S(vib)  - vibrational entropy
     S(rot)  - rotational entropy
     S(trans)- translational entropy
The entropies will be listed as multiplied by the temperature to get
units of energy

Electronic entropy                ...      0.00000000 Eh      0.00 kcal/mol
Vibrational entropy               ...     -0.00000000 Eh     -0.00 kcal/mol
Rotational entropy                ...      0.00143553 Eh      0.90 kcal/mol
Translational entropy             ...      0.01334204 Eh      8.37 kcal/mol
-----------------------------------------------------------------------
Final entropy term                ...      0.01477757 Eh      9.27 kcal/mol


-------------------
GIBBS FREE ENERGY
-------------------

The Gibbs free energy is G = H - T*S

Total enthalpy                    ...     -1.15102830 Eh 
Total entropy correction          ...     -0.01477757 Eh     -9.27 kcal/mol
-----------------------------------------------------------------------
Final Gibbs free energy         ...     -1.16580586 Eh

For completeness - the Gibbs free energy minus the electronic energy
G-E(el)                           ...     -0.00115609 Eh     -0.73 kcal/mol



Timings for individual modules:

Sum of individual times         ...      181.989 sec (=   3.033 min)
GTO integral calculation        ...        3.325 sec (=   0.055 min)   1.8 %
SCF iterations                  ...        2.523 sec (=   0.042 min)   1.4 %
MP2 module                      ...        9.692 sec (=   0.162 min)   5.3 %
Geometry relaxation             ...        0.947 sec (=   0.016 min)   0.5 %
Numerical frequency calculation ...      165.502 sec (=   2.758 min)  90.9 %
                             ****ORCA TERMINATED NORMALLY****
TOTAL RUN TIME: 0 days 0 hours 3 minutes 1 seconds 332 msec
